 Entering Gaussian System, Link 0=g16
 Input=hoono_a1_98p31602.gjf
 Output=hoono_a1_98p31602.log
 Initial command:
 /sw/contrib/gaussian/g16/B01/g16/l1.exe "/scr/Gau-29505.inp" -scrdir="/scr/"
 Entering Link 1 = /sw/contrib/gaussian/g16/B01/g16/l1.exe PID=     29506.
  
 Copyright (c) 1988-2017, Gaussian, Inc.  All Rights Reserved.
  
 This is part of the Gaussian(R) 16 program.  It is based on
 the Gaussian(R) 09 system (copyright 2009, Gaussian, Inc.),
 the Gaussian(R) 03 system (copyright 2003, Gaussian, Inc.),
 the Gaussian(R) 98 system (copyright 1998, Gaussian, Inc.),
 the Gaussian(R) 94 system (copyright 1995, Gaussian, Inc.),
 the Gaussian 92(TM) system (copyright 1992, Gaussian, Inc.),
 the Gaussian 90(TM) system (copyright 1990, Gaussian, Inc.),
 the Gaussian 88(TM) system (copyright 1988, Gaussian, Inc.),
 the Gaussian 86(TM) system (copyright 1986, Carnegie Mellon
 University), and the Gaussian 82(TM) system (copyright 1983,
 Carnegie Mellon University). Gaussian is a federally registered
 trademark of Gaussian, Inc.
  
 This software contains proprietary and confidential information,
 including trade secrets, belonging to Gaussian, Inc.
  
 This software is provided under written license and may be
 used, copied, transmitted, or stored only in accord with that
 written license.
  
 The following legend is applicable only to US Government
 contracts under FAR:
  
                    RESTRICTED RIGHTS LEGEND
  
 Use, reproduction and disclosure by the US Government is
 subject to restrictions as set forth in subparagraphs (a)
 and (c) of the Commercial Computer Software - Restricted
 Rights clause in FAR 52.227-19.
  
 Gaussian, Inc.
 340 Quinnipiac St., Bldg. 40, Wallingford CT 06492
  
  
 ---------------------------------------------------------------
 Warning -- This program may not be used in any manner that
 competes with the business of Gaussian, Inc. or will provide
 assistance to any competitor of Gaussian, Inc.  The licensee
 of this program is prohibited from giving any competitor of
 Gaussian, Inc. access to this program.  By using this program,
 the user acknowledges that Gaussian, Inc. is engaged in the
 business of creating and licensing software in the field of
 computational chemistry and represents and warrants to the
 licensee that it is not a competitor of Gaussian, Inc. and that
 it will not use this program in any manner prohibited above.
 ---------------------------------------------------------------
  

 Cite this work as:
 Gaussian 16, Revision B.01,
 M. J. Frisch, G. W. Trucks, H. B. Schlegel, G. E. Scuseria, 
 M. A. Robb, J. R. Cheeseman, G. Scalmani, V. Barone, 
 G. A. Petersson, H. Nakatsuji, X. Li, M. Caricato, A. V. Marenich, 
 J. Bloino, B. G. Janesko, R. Gomperts, B. Mennucci, H. P. Hratchian, 
 J. V. Ortiz, A. F. Izmaylov, J. L. Sonnenberg, D. Williams-Young, 
 F. Ding, F. Lipparini, F. Egidi, J. Goings, B. Peng, A. Petrone, 
 T. Henderson, D. Ranasinghe, V. G. Zakrzewski, J. Gao, N. Rega, 
 G. Zheng, W. Liang, M. Hada, M. Ehara, K. Toyota, R. Fukuda, 
 J. Hasegawa, M. Ishida, T. Nakajima, Y. Honda, O. Kitao, H. Nakai, 
 T. Vreven, K. Throssell, J. A. Montgomery, Jr., J. E. Peralta, 
 F. Ogliaro, M. J. Bearpark, J. J. Heyd, E. N. Brothers, K. N. Kudin, 
 V. N. Staroverov, T. A. Keith, R. Kobayashi, J. Normand, 
 K. Raghavachari, A. P. Rendell, J. C. Burant, S. S. Iyengar, 
 J. Tomasi, M. Cossi, J. M. Millam, M. Klene, C. Adamo, R. Cammi, 
 J. W. Ochterski, R. L. Martin, K. Morokuma, O. Farkas, 
 J. B. Foresman, and D. J. Fox, Gaussian, Inc., Wallingford CT, 2016.
 
 ******************************************
 Gaussian 16:  ES64L-G16RevB.01 20-Dec-2017
                 6-Mar-2022 
 ******************************************
 %nproc=28
 Will use up to   28 processors via shared memory.
 %mem=120GB
 %chk=hoono_a1_98p31602.chk
 ---------------------------------------
 #p freq mp2/aug-cc-pvtz density=current
 ---------------------------------------
 1/10=4,30=1,38=1/1,3;
 2/12=2,17=6,18=5,40=1/2;
 3/5=16,6=1,7=10,11=9,25=1,30=1,71=2,140=1/1,2,3;
 4//1;
 5/5=2,38=5,98=1/2;
 8/6=3,8=1,10=1,19=11,30=-1/1;
 9/15=3,16=-3/6;
 11/6=1,8=1,15=11,17=12,24=-1,27=1,28=-2,29=300,32=6,42=3/1,2,10;
 10/6=2,21=1/2;
 8/6=4,8=1,10=1,19=11,30=-1/11,4;
 10/5=1,20=4/2;
 11/12=2,14=11,16=1,17=2,28=-2,42=3,76=2/2,10,12;
 6/7=2,8=2,9=2,10=2,22=-1/1;
 7/8=1,10=1,12=2,25=1,44=2/1,2,3,16;
 1/10=4,30=1/3;
 99//99;
 Leave Link    1 at Sun Mar  6 19:26:43 2022, MaxMem= 16106127360 cpu:               2.1 elap:               0.1
 (Enter /sw/contrib/gaussian/g16/B01/g16/l101.exe)
 -----
 title
 -----
 Symbolic Z-matrix:
 Charge =  0 Multiplicity = 1
 H
 O                    1    r1
 O                    2    r2       1    a1
 N                    3    r3       2    a2       1    d1       0
 O                    4    r4       3    a3       2    d2       0
       Variables:
  r1                    0.98538                  
  r2                    1.42674                  
  r3                    1.38111                  
  r4                    1.19479                  
  a1                   98.31602                  
  a2                  113.13777                  
  a3                  114.33392                  
  d1                    0.                       
  d2                    0.                       
 
 ITRead=  0  0  0  0  0
 MicOpt= -1 -1 -1 -1 -1
 NAtoms=      5 NQM=        5 NQMF=       0 NMMI=      0 NMMIF=      0
                NMic=       0 NMicF=      0.
                    Isotopes and Nuclear Properties:
 (Nuclear quadrupole moments (NQMom) in fm**2, nuclear magnetic moments (NMagM)
  in nuclear magnetons)

  Atom         1           2           3           4           5
 IAtWgt=           1          16          16          14          16
 AtmWgt=   1.0078250  15.9949146  15.9949146  14.0030740  15.9949146
 NucSpn=           1           0           0           2           0
 AtZEff=  -0.0000000  -0.0000000  -0.0000000  -0.0000000  -0.0000000
 NQMom=    0.0000000   0.0000000   0.0000000   2.0440000   0.0000000
 NMagM=    2.7928460   0.0000000   0.0000000   0.4037610   0.0000000
 AtZNuc=   1.0000000   8.0000000   8.0000000   7.0000000   8.0000000
 Leave Link  101 at Sun Mar  6 19:26:43 2022, MaxMem= 16106127360 cpu:               2.6 elap:               0.1
 (Enter /sw/contrib/gaussian/g16/B01/g16/l103.exe)

 GradGradGradGradGradGradGradGradGradGradGradGradGradGradGradGradGradGrad
 Berny optimization.
 Initialization pass.
                       ----------------------------
                       !    Initial Parameters    !
                       ! (Angstroms and Degrees)  !
 ----------------------                            ----------------------
 !      Name          Value   Derivative information (Atomic Units)     !
 ------------------------------------------------------------------------
 !       r1          0.9854   calculate D2E/DX2 analytically            !
 !       r2          1.4267   calculate D2E/DX2 analytically            !
 !       r3          1.3811   calculate D2E/DX2 analytically            !
 !       r4          1.1948   calculate D2E/DX2 analytically            !
 !       a1         98.316    calculate D2E/DX2 analytically            !
 !       a2        113.1378   calculate D2E/DX2 analytically            !
 !       a3        114.3339   calculate D2E/DX2 analytically            !
 !       d1          0.0      calculate D2E/DX2 analytically            !
 !       d2          0.0      calculate D2E/DX2 analytically            !
 ------------------------------------------------------------------------
 Trust Radius=3.00D-01 FncErr=1.00D-07 GrdErr=1.00D-07 EigMax=2.50D+02 EigMin=1.00D-04
 Number of steps in this run=      2 maximum allowed number of steps=      2.
 GradGradGradGradGradGradGradGradGradGradGradGradGradGradGradGradGradGrad

 Leave Link  103 at Sun Mar  6 19:26:43 2022, MaxMem= 16106127360 cpu:               0.5 elap:               0.0
 (Enter /sw/contrib/gaussian/g16/B01/g16/l202.exe)
                          Input orientation:                          
 ---------------------------------------------------------------------
 Center     Atomic      Atomic             Coordinates (Angstroms)
 Number     Number       Type             X           Y           Z
 ---------------------------------------------------------------------
      1          1           0        0.000000    0.000000    0.000000
      2          8           0        0.000000    0.000000    0.985377
      3          8           0        1.411735    0.000000    1.191730
      4          7           0        2.132412    0.000000    0.013560
      5          8           0        1.460629    0.000000   -0.974482
 ---------------------------------------------------------------------
                    Distance matrix (angstroms):
                    1          2          3          4          5
     1  H    0.000000
     2  O    0.985377   0.000000
     3  O    1.847489   1.426737   0.000000
     4  N    2.132455   2.343418   1.381108   0.000000
     5  O    1.755862   2.444276   2.166763   1.194788   0.000000
 Stoichiometry    HNO3
 Framework group  CS[SG(HNO3)]
 Deg. of freedom     7
 Full point group                 CS      NOp   2
 Largest Abelian subgroup         CS      NOp   2
 Largest concise Abelian subgroup C1      NOp   1
                         Standard orientation:                         
 ---------------------------------------------------------------------
 Center     Atomic      Atomic             Coordinates (Angstroms)
 Number     Number       Type             X           Y           Z
 ---------------------------------------------------------------------
      1          1           0        1.072361   -0.587710    0.000000
      2          8           0        1.316558    0.366929    0.000000
      3          8           0       -0.000000    0.916703    0.000000
      4          7           0       -0.990172   -0.046115    0.000000
      5          8           0       -0.584203   -1.169818    0.000000
 ---------------------------------------------------------------------
 Rotational constants (GHZ):          21.4154156           8.1106807           5.8827146
 Leave Link  202 at Sun Mar  6 19:26:43 2022, MaxMem= 16106127360 cpu:               0.4 elap:               0.0
 (Enter /sw/contrib/gaussian/g16/B01/g16/l301.exe)
 Standard basis: Aug-CC-pVTZ (5D, 7F)
 Ernie: Thresh=  0.10000D-02 Tol=  0.10000D-05 Strict=F.
 Ernie:  12 primitive shells out of 131 were deleted.
 There are   166 symmetry adapted cartesian basis functions of A'  symmetry.
 There are    79 symmetry adapted cartesian basis functions of A"  symmetry.
 There are   136 symmetry adapted basis functions of A'  symmetry.
 There are    71 symmetry adapted basis functions of A"  symmetry.
   207 basis functions,   315 primitive gaussians,   245 cartesian basis functions
    16 alpha electrons       16 beta electrons
       nuclear repulsion energy       122.8644590515 Hartrees.
 IExCor=    0 DFT=F Ex=HF Corr=None ExCW=0 ScaHFX=  1.000000
 ScaDFX=  1.000000  1.000000  1.000000  1.000000 ScalE2=  1.000000  1.000000
 IRadAn=      5 IRanWt=     -1 IRanGd=            0 ICorTp=0 IEmpDi=  4
 NAtoms=    5 NActive=    5 NUniq=    5 SFac= 1.00D+00 NAtFMM=   60 NAOKFM=F Big=F
 Integral buffers will be    131072 words long.
 Raffenetti 1 integral format.
 Two-electron integral symmetry is turned on.
 Leave Link  301 at Sun Mar  6 19:26:43 2022, MaxMem= 16106127360 cpu:               2.2 elap:               0.1
 (Enter /sw/contrib/gaussian/g16/B01/g16/l302.exe)
 NPDir=0 NMtPBC=     1 NCelOv=     1 NCel=       1 NClECP=     1 NCelD=      1
         NCelK=      1 NCelE2=     1 NClLst=     1 CellRange=     0.0.
 One-electron integrals computed using PRISM.
 One-electron integral symmetry used in STVInt
 NBasis=   207 RedAO= T EigKep=  1.31D-04  NBF=   136    71
 NBsUse=   207 1.00D-06 EigRej= -1.00D+00 NBFU=   136    71
 Leave Link  302 at Sun Mar  6 19:26:43 2022, MaxMem= 16106127360 cpu:               6.1 elap:               0.3
 (Enter /sw/contrib/gaussian/g16/B01/g16/l303.exe)
 DipDrv:  MaxL=1.
 Leave Link  303 at Sun Mar  6 19:26:43 2022, MaxMem= 16106127360 cpu:               0.8 elap:               0.1
 (Enter /sw/contrib/gaussian/g16/B01/g16/l401.exe)
 ExpMin= 2.53D-02 ExpMax= 1.53D+04 ExpMxC= 5.22D+02 IAcc=3 IRadAn=         5 AccDes= 0.00D+00
 Harris functional with IExCor=  205 and IRadAn=       5 diagonalized for initial guess.
 HarFok:  IExCor=  205 AccDes= 0.00D+00 IRadAn=         5 IDoV= 1 UseB2=F ITyADJ=14
 ICtDFT=  3500011 ScaDFX=  1.000000  1.000000  1.000000  1.000000
 FoFCou: FMM=F IPFlag=           0 FMFlag=      100000 FMFlg1=           0
         NFxFlg=           0 DoJE=T BraDBF=F KetDBF=T FulRan=T
         wScrn=  0.000000 ICntrl=       500 IOpCl=  0 I1Cent=   200000004 NGrid=           0
         NMat0=    1 NMatS0=      1 NMatT0=    0 NMatD0=    1 NMtDS0=    0 NMtDT0=    0
 Petite list used in FoFCou.
 Harris En= -279.644736725044    
 JPrj=0 DoOrth=F DoCkMO=F.
 Initial guess orbital symmetries:
       Occupied  (A') (A') (A') (A') (A') (A') (A') (A') (A') (A')
                 (A") (A') (A") (A') (A") (A')
       Virtual   (A") (A') (A') (A') (A') (A") (A') (A') (A') (A')
                 (A") (A') (A") (A') (A') (A") (A') (A') (A") (A')
                 (A') (A') (A') (A') (A") (A') (A') (A') (A") (A')
                 (A') (A") (A") (A') (A') (A") (A') (A") (A') (A")
                 (A') (A") (A') (A") (A') (A') (A') (A") (A') (A')
                 (A') (A") (A') (A") (A') (A") (A') (A') (A') (A")
                 (A') (A') (A") (A') (A') (A') (A") (A") (A') (A')
                 (A") (A') (A") (A") (A') (A') (A") (A') (A') (A')
                 (A") (A') (A') (A") (A') (A") (A') (A") (A') (A')
                 (A') (A") (A') (A") (A') (A') (A") (A') (A") (A')
                 (A") (A') (A') (A") (A") (A') (A') (A') (A") (A')
                 (A") (A') (A') (A') (A") (A') (A') (A') (A") (A')
                 (A") (A') (A') (A") (A") (A") (A") (A') (A') (A')
                 (A') (A') (A') (A") (A') (A") (A') (A") (A') (A")
                 (A') (A") (A') (A') (A') (A") (A') (A') (A') (A")
                 (A') (A') (A') (A") (A') (A") (A") (A') (A') (A")
                 (A') (A") (A") (A') (A") (A') (A") (A') (A") (A')
                 (A") (A") (A") (A') (A") (A') (A') (A') (A") (A')
                 (A') (A') (A') (A') (A') (A') (A') (A') (A') (A')
                 (A')
 The electronic state of the initial guess is 1-A'.
 Leave Link  401 at Sun Mar  6 19:26:44 2022, MaxMem= 16106127360 cpu:               8.3 elap:               0.4
 (Enter /sw/contrib/gaussian/g16/B01/g16/l502.exe)
 Keep R1 ints in memory in symmetry-blocked form, NReq=348887737.
 FoFCou: FMM=F IPFlag=           0 FMFlag=           0 FMFlg1=           0
         NFxFlg=           0 DoJE=F BraDBF=F KetDBF=F FulRan=T
         wScrn=  0.000000 ICntrl=       600 IOpCl=  0 I1Cent=           0 NGrid=           0
         NMat0=    1 NMatS0=  21528 NMatT0=    0 NMatD0=    1 NMtDS0=    0 NMtDT0=    0
 Petite list used in FoFCou.
 Closed shell SCF:
 Using DIIS extrapolation, IDIIS=  1040.
 NGot= 16106127360 LenX= 15988850015 LenY= 15988789549
 Requested convergence on RMS density matrix=1.00D-08 within 128 cycles.
 Requested convergence on MAX density matrix=1.00D-06.
 Requested convergence on             energy=1.00D-06.
 No special actions if energy rises.

 Cycle   1  Pass 1  IDiag  1:
 E= -279.363570633011    
 DIIS: error= 2.74D-02 at cycle   1 NSaved=   1.
 NSaved= 1 IEnMin= 1 EnMin= -279.363570633011     IErMin= 1 ErrMin= 2.74D-02
 ErrMax= 2.74D-02  0.00D+00 EMaxC= 1.00D-01 BMatC= 4.50D-01 BMatP= 4.50D-01
 IDIUse=3 WtCom= 7.26D-01 WtEn= 2.74D-01
 Coeff-Com:  0.100D+01
 Coeff-En:   0.100D+01
 Coeff:      0.100D+01
 Gap=     0.496 Goal=   None    Shift=    0.000
 GapD=    0.496 DampG=2.000 DampE=0.500 DampFc=1.0000 IDamp=-1.
 RMSDP=1.68D-03 MaxDP=8.85D-02              OVMax= 1.22D-01

 Cycle   2  Pass 1  IDiag  1:
 E= -279.445921803765     Delta-E=       -0.082351170754 Rises=F Damp=F
 DIIS: error= 1.97D-02 at cycle   2 NSaved=   2.
 NSaved= 2 IEnMin= 2 EnMin= -279.445921803765     IErMin= 2 ErrMin= 1.97D-02
 ErrMax= 1.97D-02  0.00D+00 EMaxC= 1.00D-01 BMatC= 8.52D-02 BMatP= 4.50D-01
 IDIUse=3 WtCom= 8.03D-01 WtEn= 1.97D-01
 Coeff-Com:  0.217D+00 0.783D+00
 Coeff-En:   0.721D-01 0.928D+00
 Coeff:      0.189D+00 0.811D+00
 Gap=     0.563 Goal=   None    Shift=    0.000
 RMSDP=9.68D-04 MaxDP=3.74D-02 DE=-8.24D-02 OVMax= 9.14D-02

 Cycle   3  Pass 1  IDiag  1:
 E= -279.483257384834     Delta-E=       -0.037335581068 Rises=F Damp=F
 DIIS: error= 1.15D-02 at cycle   3 NSaved=   3.
 NSaved= 3 IEnMin= 3 EnMin= -279.483257384834     IErMin= 3 ErrMin= 1.15D-02
 ErrMax= 1.15D-02  0.00D+00 EMaxC= 1.00D-01 BMatC= 3.10D-02 BMatP= 8.52D-02
 IDIUse=3 WtCom= 8.85D-01 WtEn= 1.15D-01
 Coeff-Com: -0.348D-01 0.366D+00 0.669D+00
 Coeff-En:   0.000D+00 0.219D+00 0.781D+00
 Coeff:     -0.308D-01 0.349D+00 0.682D+00
 Gap=     0.542 Goal=   None    Shift=    0.000
 RMSDP=4.12D-04 MaxDP=1.60D-02 DE=-3.73D-02 OVMax= 3.86D-02

 Cycle   4  Pass 1  IDiag  1:
 E= -279.504420946285     Delta-E=       -0.021163561451 Rises=F Damp=F
 DIIS: error= 1.70D-03 at cycle   4 NSaved=   4.
 NSaved= 4 IEnMin= 4 EnMin= -279.504420946285     IErMin= 4 ErrMin= 1.70D-03
 ErrMax= 1.70D-03  0.00D+00 EMaxC= 1.00D-01 BMatC= 6.12D-04 BMatP= 3.10D-02
 IDIUse=3 WtCom= 9.83D-01 WtEn= 1.70D-02
 Coeff-Com: -0.121D-01 0.487D-01 0.157D+00 0.807D+00
 Coeff-En:   0.000D+00 0.000D+00 0.000D+00 0.100D+01
 Coeff:     -0.119D-01 0.478D-01 0.154D+00 0.810D+00
 Gap=     0.529 Goal=   None    Shift=    0.000
 RMSDP=9.90D-05 MaxDP=2.32D-03 DE=-2.12D-02 OVMax= 1.18D-02

 Cycle   5  Pass 1  IDiag  1:
 E= -279.505239317299     Delta-E=       -0.000818371014 Rises=F Damp=F
 DIIS: error= 1.13D-03 at cycle   5 NSaved=   5.
 NSaved= 5 IEnMin= 5 EnMin= -279.505239317299     IErMin= 5 ErrMin= 1.13D-03
 ErrMax= 1.13D-03  0.00D+00 EMaxC= 1.00D-01 BMatC= 1.04D-04 BMatP= 6.12D-04
 IDIUse=3 WtCom= 9.89D-01 WtEn= 1.13D-02
 Coeff-Com:  0.544D-02-0.669D-01-0.112D+00 0.599D-01 0.111D+01
 Coeff-En:   0.000D+00 0.000D+00 0.000D+00 0.000D+00 0.100D+01
 Coeff:      0.538D-02-0.661D-01-0.111D+00 0.592D-01 0.111D+01
 Gap=     0.533 Goal=   None    Shift=    0.000
 RMSDP=8.05D-05 MaxDP=2.12D-03 DE=-8.18D-04 OVMax= 1.30D-02

 Cycle   6  Pass 1  IDiag  1:
 E= -279.505606566116     Delta-E=       -0.000367248817 Rises=F Damp=F
 DIIS: error= 3.45D-04 at cycle   6 NSaved=   6.
 NSaved= 6 IEnMin= 6 EnMin= -279.505606566116     IErMin= 6 ErrMin= 3.45D-04
 ErrMax= 3.45D-04  0.00D+00 EMaxC= 1.00D-01 BMatC= 2.42D-05 BMatP= 1.04D-04
 IDIUse=3 WtCom= 9.97D-01 WtEn= 3.45D-03
 Coeff-Com:  0.189D-02-0.710D-02-0.179D-01-0.182D+00 0.988D-02 0.120D+01
 Coeff-En:   0.000D+00 0.000D+00 0.000D+00 0.000D+00 0.000D+00 0.100D+01
 Coeff:      0.188D-02-0.707D-02-0.179D-01-0.181D+00 0.985D-02 0.119D+01
 Gap=     0.533 Goal=   None    Shift=    0.000
 RMSDP=4.69D-05 MaxDP=1.07D-03 DE=-3.67D-04 OVMax= 6.12D-03

 Cycle   7  Pass 1  IDiag  1:
 E= -279.505693015907     Delta-E=       -0.000086449791 Rises=F Damp=F
 DIIS: error= 1.27D-04 at cycle   7 NSaved=   7.
 NSaved= 7 IEnMin= 7 EnMin= -279.505693015907     IErMin= 7 ErrMin= 1.27D-04
 ErrMax= 1.27D-04  0.00D+00 EMaxC= 1.00D-01 BMatC= 3.57D-06 BMatP= 2.42D-05
 IDIUse=3 WtCom= 9.99D-01 WtEn= 1.27D-03
 Coeff-Com: -0.109D-02 0.115D-01 0.250D-01 0.157D-01-0.179D+00-0.149D+00
 Coeff-Com:  0.128D+01
 Coeff-En:   0.000D+00 0.000D+00 0.000D+00 0.000D+00 0.000D+00 0.000D+00
 Coeff-En:   0.100D+01
 Coeff:     -0.109D-02 0.115D-01 0.249D-01 0.156D-01-0.179D+00-0.149D+00
 Coeff:      0.128D+01
 Gap=     0.533 Goal=   None    Shift=    0.000
 RMSDP=1.75D-05 MaxDP=5.11D-04 DE=-8.64D-05 OVMax= 2.33D-03

 Cycle   8  Pass 1  IDiag  1:
 E= -279.505705020929     Delta-E=       -0.000012005021 Rises=F Damp=F
 DIIS: error= 4.71D-05 at cycle   8 NSaved=   8.
 NSaved= 8 IEnMin= 8 EnMin= -279.505705020929     IErMin= 8 ErrMin= 4.71D-05
 ErrMax= 4.71D-05  0.00D+00 EMaxC= 1.00D-01 BMatC= 6.04D-07 BMatP= 3.57D-06
 IDIUse=1 WtCom= 1.00D+00 WtEn= 0.00D+00
 Coeff-Com: -0.562D-03 0.414D-02 0.974D-02 0.246D-01-0.561D-01-0.193D+00
 Coeff-Com:  0.353D+00 0.858D+00
 Coeff:     -0.562D-03 0.414D-02 0.974D-02 0.246D-01-0.561D-01-0.193D+00
 Coeff:      0.353D+00 0.858D+00
 Gap=     0.533 Goal=   None    Shift=    0.000
 RMSDP=5.48D-06 MaxDP=1.55D-04 DE=-1.20D-05 OVMax= 6.55D-04

 Cycle   9  Pass 1  IDiag  1:
 E= -279.505706414142     Delta-E=       -0.000001393214 Rises=F Damp=F
 DIIS: error= 2.36D-05 at cycle   9 NSaved=   9.
 NSaved= 9 IEnMin= 9 EnMin= -279.505706414142     IErMin= 9 ErrMin= 2.36D-05
 ErrMax= 2.36D-05  0.00D+00 EMaxC= 1.00D-01 BMatC= 1.17D-07 BMatP= 6.04D-07
 IDIUse=1 WtCom= 1.00D+00 WtEn= 0.00D+00
 Coeff-Com:  0.242D-03-0.258D-02-0.536D-02-0.553D-02 0.467D-01 0.492D-01
 Coeff-Com: -0.340D+00 0.309D-01 0.123D+01
 Coeff:      0.242D-03-0.258D-02-0.536D-02-0.553D-02 0.467D-01 0.492D-01
 Coeff:     -0.340D+00 0.309D-01 0.123D+01
 Gap=     0.533 Goal=   None    Shift=    0.000
 RMSDP=2.48D-06 MaxDP=6.81D-05 DE=-1.39D-06 OVMax= 2.59D-04

 Cycle  10  Pass 1  IDiag  1:
 E= -279.505706680689     Delta-E=       -0.000000266547 Rises=F Damp=F
 DIIS: error= 5.87D-06 at cycle  10 NSaved=  10.
 NSaved=10 IEnMin=10 EnMin= -279.505706680689     IErMin=10 ErrMin= 5.87D-06
 ErrMax= 5.87D-06  0.00D+00 EMaxC= 1.00D-01 BMatC= 8.28D-09 BMatP= 1.17D-07
 IDIUse=1 WtCom= 1.00D+00 WtEn= 0.00D+00
 Coeff-Com: -0.371D-04 0.484D-03 0.116D-02-0.191D-02-0.106D-01 0.581D-02
 Coeff-Com:  0.701D-01-0.535D-01-0.427D+00 0.142D+01
 Coeff:     -0.371D-04 0.484D-03 0.116D-02-0.191D-02-0.106D-01 0.581D-02
 Coeff:      0.701D-01-0.535D-01-0.427D+00 0.142D+01
 Gap=     0.533 Goal=   None    Shift=    0.000
 RMSDP=7.07D-07 MaxDP=2.52D-05 DE=-2.67D-07 OVMax= 7.54D-05

 Cycle  11  Pass 1  IDiag  1:
 E= -279.505706705812     Delta-E=       -0.000000025123 Rises=F Damp=F
 DIIS: error= 2.26D-06 at cycle  11 NSaved=  11.
 NSaved=11 IEnMin=11 EnMin= -279.505706705812     IErMin=11 ErrMin= 2.26D-06
 ErrMax= 2.26D-06  0.00D+00 EMaxC= 1.00D-01 BMatC= 8.68D-10 BMatP= 8.28D-09
 IDIUse=1 WtCom= 1.00D+00 WtEn= 0.00D+00
 Coeff-Com: -0.172D-04 0.177D-03 0.369D-03 0.866D-03-0.235D-02-0.728D-02
 Coeff-Com:  0.204D-01 0.189D-01-0.577D-01-0.307D+00 0.133D+01
 Coeff:     -0.172D-04 0.177D-03 0.369D-03 0.866D-03-0.235D-02-0.728D-02
 Coeff:      0.204D-01 0.189D-01-0.577D-01-0.307D+00 0.133D+01
 Gap=     0.533 Goal=   None    Shift=    0.000
 RMSDP=2.46D-07 MaxDP=9.12D-06 DE=-2.51D-08 OVMax= 2.87D-05

 Cycle  12  Pass 1  IDiag  1:
 E= -279.505706708907     Delta-E=       -0.000000003095 Rises=F Damp=F
 DIIS: error= 7.60D-07 at cycle  12 NSaved=  12.
 NSaved=12 IEnMin=12 EnMin= -279.505706708907     IErMin=12 ErrMin= 7.60D-07
 ErrMax= 7.60D-07  0.00D+00 EMaxC= 1.00D-01 BMatC= 9.36D-11 BMatP= 8.68D-10
 IDIUse=1 WtCom= 1.00D+00 WtEn= 0.00D+00
 Coeff-Com:  0.252D-05-0.454D-04-0.986D-04 0.158D-03 0.116D-02-0.918D-03
 Coeff-Com: -0.729D-02 0.699D-02 0.420D-01-0.123D+00-0.172D+00 0.125D+01
 Coeff:      0.252D-05-0.454D-04-0.986D-04 0.158D-03 0.116D-02-0.918D-03
 Coeff:     -0.729D-02 0.699D-02 0.420D-01-0.123D+00-0.172D+00 0.125D+01
 Gap=     0.533 Goal=   None    Shift=    0.000
 RMSDP=8.78D-08 MaxDP=2.88D-06 DE=-3.09D-09 OVMax= 1.02D-05

 Cycle  13  Pass 1  IDiag  1:
 E= -279.505706709236     Delta-E=       -0.000000000329 Rises=F Damp=F
 DIIS: error= 1.72D-07 at cycle  13 NSaved=  13.
 NSaved=13 IEnMin=13 EnMin= -279.505706709236     IErMin=13 ErrMin= 1.72D-07
 ErrMax= 1.72D-07  0.00D+00 EMaxC= 1.00D-01 BMatC= 7.86D-12 BMatP= 9.36D-11
 IDIUse=1 WtCom= 1.00D+00 WtEn= 0.00D+00
 Coeff-Com:  0.137D-05-0.133D-04-0.195D-04-0.121D-03 0.590D-04 0.952D-03
 Coeff-Com: -0.119D-02-0.256D-02-0.134D-02 0.543D-01-0.128D+00-0.156D+00
 Coeff-Com:  0.123D+01
 Coeff:      0.137D-05-0.133D-04-0.195D-04-0.121D-03 0.590D-04 0.952D-03
 Coeff:     -0.119D-02-0.256D-02-0.134D-02 0.543D-01-0.128D+00-0.156D+00
 Coeff:      0.123D+01
 Gap=     0.533 Goal=   None    Shift=    0.000
 RMSDP=2.34D-08 MaxDP=7.01D-07 DE=-3.29D-10 OVMax= 2.17D-06

 Cycle  14  Pass 1  IDiag  1:
 E= -279.505706709260     Delta-E=       -0.000000000023 Rises=F Damp=F
 DIIS: error= 4.18D-08 at cycle  14 NSaved=  14.
 NSaved=14 IEnMin=14 EnMin= -279.505706709260     IErMin=14 ErrMin= 4.18D-08
 ErrMax= 4.18D-08  0.00D+00 EMaxC= 1.00D-01 BMatC= 5.13D-13 BMatP= 7.86D-12
 IDIUse=1 WtCom= 1.00D+00 WtEn= 0.00D+00
 Coeff-Com: -0.295D-06 0.447D-05 0.904D-05-0.538D-05-0.115D-03 0.723D-04
 Coeff-Com:  0.644D-03-0.354D-03-0.365D-02 0.858D-02 0.165D-01-0.895D-01
 Coeff-Com: -0.234D-01 0.109D+01
 Coeff:     -0.295D-06 0.447D-05 0.904D-05-0.538D-05-0.115D-03 0.723D-04
 Coeff:      0.644D-03-0.354D-03-0.365D-02 0.858D-02 0.165D-01-0.895D-01
 Coeff:     -0.234D-01 0.109D+01
 Gap=     0.533 Goal=   None    Shift=    0.000
 RMSDP=4.51D-09 MaxDP=1.13D-07 DE=-2.31D-11 OVMax= 4.91D-07

 SCF Done:  E(RHF) =  -279.505706709     A.U. after   14 cycles
            NFock= 14  Conv=0.45D-08     -V/T= 2.0022
 KE= 2.788955120749D+02 PE=-9.065776507855D+02 EE= 2.253119729498D+02
 Leave Link  502 at Sun Mar  6 19:26:47 2022, MaxMem= 16106127360 cpu:              57.9 elap:               3.8
 (Enter /sw/contrib/gaussian/g16/B01/g16/l801.exe)
 ExpMin= 2.53D-02 ExpMax= 1.53D+04 ExpMxC= 5.22D+02 IAcc=3 IRadAn=         5 AccDes= 0.00D+00
 HarFok:  IExCor=  205 AccDes= 0.00D+00 IRadAn=         5 IDoV=-2 UseB2=F ITyADJ=14
 ICtDFT= 12500011 ScaDFX=  1.000000  1.000000  1.000000  1.000000
 Largest valence mixing into a core orbital is  2.07D-04
 Largest core mixing into a valence orbital is  3.13D-05
 Range of M.O.s used for correlation:     5   207
 NBasis=   207 NAE=    16 NBE=    16 NFC=     4 NFV=     0
 NROrb=    203 NOA=    12 NOB=    12 NVA=   191 NVB=   191

 **** Warning!!: The largest alpha MO coefficient is  0.16795721D+02

 Leave Link  801 at Sun Mar  6 19:26:47 2022, MaxMem= 16106127360 cpu:               2.1 elap:               0.1
 (Enter /sw/contrib/gaussian/g16/B01/g16/l906.exe)
 Frozen-core derivative calculation, NFC=   4 NFV=   0.
 FulOut=F Deriv=T AODrv=T NAtomX=     5
   MMem=           0  MDisk=          12 MDiskD=          12
  W3Min=      811440 MinDsk=     2425030 NBas6D=         245
 NBas2D=       30762    NTT=       30135    LW2=     7400000
    MDV= 16105571532 MDiskM=      328644 NBas2p=       30759
 Disk-based method using ON**2 memory for 12 occupieds at a time.
 Permanent disk used for amplitudes=    11516536 words.
 Estimated scratch disk usage=   321863743 words.
 IMap=   1   2   3   4   5   6   7   8   9  10  11  12  13  14  15  16
 Actual    scratch disk usage=   310892607 words.
 JobTyp=1 Pass  1:  I=   5 to  16 NPSUse= 28 ParTrn=T ParDer=T DoDerP=T.
 (rs|ai) integrals will be sorted in core.
 Spin components of T(2) and E(2):
     alpha-alpha T2 =       0.3484478539D-01 E2=     -0.1246755543D+00
     alpha-beta  T2 =       0.1845801853D+00 E2=     -0.6999741134D+00
     beta-beta   T2 =       0.3484478539D-01 E2=     -0.1246755543D+00
 The integrals were generated   1 times.
 ANorm=    0.1119941854D+01
 E2 =    -0.9493252221D+00 EUMP2 =    -0.28045503193131D+03
 Leave Link  906 at Sun Mar  6 19:28:25 2022, MaxMem= 16106127360 cpu:            2726.0 elap:              97.5
 (Enter /sw/contrib/gaussian/g16/B01/g16/l1101.exe)
 Using compressed Sx but separate Hx and Fx, NAtomX=     5.
 Will process      6 centers per pass.
 Leave Link 1101 at Sun Mar  6 19:28:25 2022, MaxMem= 16106127360 cpu:               5.4 elap:               0.2
 (Enter /sw/contrib/gaussian/g16/B01/g16/l1102.exe)
 Leave Link 1102 at Sun Mar  6 19:28:25 2022, MaxMem= 16106127360 cpu:               0.5 elap:               0.0
 (Enter /sw/contrib/gaussian/g16/B01/g16/l1110.exe)
 Forming Gx(P) for the SCF density, NAtomX=     5.
 Integral derivatives from FoFJK, PRISM(SPDF).
 Do as many integral derivatives as possible in FoFJK.
 G2DrvN: MDV=   16106126844.
 G2DrvN: will do     6 centers at a time, making    1 passes.
 Calling FoFCou, ICntrl=  3107 FMM=F I1Cent=   0 AccDes= 0.00D+00.
 FoFJK:  IHMeth= 1 ICntrl=    3107 DoSepK=F KAlg= 0 I1Cent=           0 FoldK=F
 IRaf=         0 NMat=       1 IRICut=       1 DoRegI=T DoRafI=F ISym2E= 1 IDoP0=0 IntGTp=1.
 FoFCou: FMM=F IPFlag=           0 FMFlag=      100000 FMFlg1=           0
         NFxFlg=           0 DoJE=F BraDBF=F KetDBF=F FulRan=T
         wScrn=  0.000000 ICntrl=      3107 IOpCl=  0 I1Cent=           0 NGrid=           0
         NMat0=    1 NMatS0=      1 NMatT0=    0 NMatD0=    1 NMtDS0=    0 NMtDT0=    0
 Petite list used in FoFCou.
 End of G2Drv F.D. properties file   721 does not exist.
 End of G2Drv F.D. properties file   722 does not exist.
 End of G2Drv F.D. properties file   788 does not exist.
 Leave Link 1110 at Sun Mar  6 19:28:28 2022, MaxMem= 16106127360 cpu:              86.8 elap:               3.1
 (Enter /sw/contrib/gaussian/g16/B01/g16/l1002.exe)
 Minotr:  Closed shell wavefunction.
          IDoAtm=11111
          Frozen-core window.
          Direct CPHF calculation.
          Differentiating once with respect to electric field.
                with respect to dipole field.
          Differentiating once with respect to nuclear coordinates.
          Requested convergence is 1.0D-08 RMS, and 1.0D-07 maximum.
          Secondary convergence is 1.0D-12 RMS, and 1.0D-12 maximum.
          NewPWx=T KeepS1=T KeepF1=T KeepIn=T MapXYZ=F SortEE=F KeepMc=T.
 Keep R1 ints in memory in symmetry-blocked form, NReq=348888983.
 FoFCou: FMM=F IPFlag=           0 FMFlag=           0 FMFlg1=           0
         NFxFlg=           0 DoJE=F BraDBF=F KetDBF=F FulRan=T
         wScrn=  0.000000 ICntrl=       600 IOpCl=  0 I1Cent=           0 NGrid=           0
         NMat0=    1 NMatS0=  21528 NMatT0=    0 NMatD0=    1 NMtDS0=    0 NMtDT0=    0
 Petite list used in FoFCou.
          MDV=   16106127360 using IRadAn=       1.
          Solving linear equations simultaneously, MaxMat=       0.
          There are    18 degrees of freedom in the 1st order CPHF.  IDoFFX=6 NUNeed=    18.
     15 vectors produced by pass  0 Test12= 1.70D-14 5.56D-09 XBig12= 7.89D+00 1.22D+00.
 AX will form    15 AO Fock derivatives at one time.
     15 vectors produced by pass  1 Test12= 1.70D-14 5.56D-09 XBig12= 1.35D+00 2.21D-01.
     15 vectors produced by pass  2 Test12= 1.70D-14 5.56D-09 XBig12= 6.96D-02 5.72D-02.
     15 vectors produced by pass  3 Test12= 1.70D-14 5.56D-09 XBig12= 1.99D-03 1.04D-02.
     15 vectors produced by pass  4 Test12= 1.70D-14 5.56D-09 XBig12= 4.25D-05 1.25D-03.
     15 vectors produced by pass  5 Test12= 1.70D-14 5.56D-09 XBig12= 5.78D-07 1.11D-04.
     15 vectors produced by pass  6 Test12= 1.70D-14 5.56D-09 XBig12= 4.38D-09 1.10D-05.
     13 vectors produced by pass  7 Test12= 1.70D-14 5.56D-09 XBig12= 3.40D-11 7.36D-07.
      3 vectors produced by pass  8 Test12= 1.70D-14 5.56D-09 XBig12= 2.49D-13 6.13D-08.
      1 vectors produced by pass  9 Test12= 1.70D-14 5.56D-09 XBig12= 1.73D-15 7.52D-09.
 InvSVY:  IOpt=1 It=  1 EMax= 6.66D-16
 Solved reduced A of dimension   122 with    15 vectors.
 FullF1:  Do perturbations      1 to      18.
 Saving first derivative matrices.
 End of Minotr F.D. properties file   721 does not exist.
 End of Minotr F.D. properties file   722 does not exist.
 End of Minotr F.D. properties file   788 does not exist.
 Leave Link 1002 at Sun Mar  6 19:28:31 2022, MaxMem= 16106127360 cpu:              77.6 elap:               2.9
 (Enter /sw/contrib/gaussian/g16/B01/g16/l811.exe)
 MDV= 16106127360.
 Form MO integral derivatives with frozen-active canonical formalism.
 MOERI=1 MOERIx=1 NAtoms=     5 NAtomX=     5.
 Discarding MO integrals.
 MO basis two electron integral derivatives will not be stored on disk.
 IAlg= 3 DoFC=T DoPWx=T Debug=F.
 Frozen-core window:  NFC=   4 NFV=   0.
 Reordered first order wavefunction length =     18678272
 In DefCFB: NBatch=  1 ICI= 16 ICA=191 LFMax= 96
            Large arrays: LIAPS=   619940160 LIARS=   288257200 words.
 In StABat: MaxSiz= 55 MinSiz= 25 NAtomB=  5
 DoIAMN: NPSUse= 28.
 Leave Link  811 at Sun Mar  6 19:29:53 2022, MaxMem= 16106127360 cpu:            2286.0 elap:              81.8
 (Enter /sw/contrib/gaussian/g16/B01/g16/l804.exe)
 Frozen-core window:  NFC=   4 NFV=   0.
 Closed-shell transformation, MDV= 16106127360 ITran=4 ISComp=1.
 Semi-Direct transformation.
 ModeAB=           2 MOrb=            16 LenV=   16104919897
 LASXX=     67341636 LTotXX=    67341636 LenRXX=    67341636
 LTotAB=    68301760 MaxLAS=    99807120 LenRXY=    99807120
 NonZer=   134683272 LenScr=   202817536 LnRSAI=           0
 LnScr1=           0 LExtra=           0 Total=    369966292
 MaxDsk=          -1 SrtSym=           F ITran=            4
 DoSDTr:  NPSUse= 28
 JobTyp=0 Pass  1:  I=   1 to  16.
 (rs|ai) integrals will be sorted in core.
 Complete sort for first half transformation.
 First half transformation complete.
 Begin second half transformation for I=  10.
 Begin second half transformation for I=  10.
 Complete sort for second half transformation.
 Second half transformation complete.
 Spin components of T(2) and E(2):
     alpha-alpha T2 =       0.3484478539D-01 E2=     -0.1246755543D+00
     alpha-beta  T2 =       0.1845801853D+00 E2=     -0.6999741134D+00
     beta-beta   T2 =       0.3484478539D-01 E2=     -0.1246755543D+00
 ANorm=    0.1583836959D+01
 E2 =    -0.9493252221D+00 EUMP2 =    -0.28045503193131D+03
 Leave Link  804 at Sun Mar  6 19:30:09 2022, MaxMem= 16106127360 cpu:             443.2 elap:              15.9
 (Enter /sw/contrib/gaussian/g16/B01/g16/l1002.exe)
 Minotr:  Closed shell wavefunction.
          Computing MP2/KS-MP2 derivatives.
          Using Z-Vector for PSCF gradient.
          Skipping F1 and S1 gradient terms here.
          IDoAtm=11111
          Frozen-core window.
          Using MO integrals in the linear equations.
          Forming densities via direct SCF.
          Differentiating once with respect to electric field.
                with respect to dipole field.
          Differentiating once with respect to nuclear coordinates.
          Using symmetry in CPHF.
          Requested convergence is 1.0D-10 RMS, and 1.0D-09 maximum.
          NewPWx=F KeepS1=T KeepF1=T KeepIn=T MapXYZ=F SortEE=F KeepMc=T.
          MDV=   16106127360 using IRadAn=       5.
          Solving linear equations separately, MaxMat=       0.
          There are     1 degrees of freedom in the 1st order CPHF.  IDoFFX=0 NUNeed=     1.
 FoFJK:  IHMeth= 1 ICntrl=       0 DoSepK=F KAlg= 0 I1Cent=           0 FoldK=F
 IRaf=         0 NMat=       1 IRICut=       1 DoRegI=T DoRafI=F ISym2E= 0 IDoP0=0 IntGTp=1.
 FoFCou: FMM=F IPFlag=           0 FMFlag=      100000 FMFlg1=           0
         NFxFlg=           0 DoJE=F BraDBF=F KetDBF=F FulRan=T
         wScrn=  0.000000 ICntrl=         0 IOpCl=  0 I1Cent=           0 NGrid=           0
         NMat0=    1 NMatS0=      1 NMatT0=    0 NMatD0=    1 NMtDS0=    0 NMtDT0=    0
 Symmetry not used in FoFCou.
 LinEq1:  Iter=  0 NonCon=     1 RMS=6.62D-03 Max=1.72D-01 NDo=     1
 LinEq1:  Iter=  1 NonCon=     1 RMS=2.01D-03 Max=3.05D-02 NDo=     1
 LinEq1:  Iter=  2 NonCon=     1 RMS=8.92D-04 Max=1.45D-02 NDo=     1
 LinEq1:  Iter=  3 NonCon=     1 RMS=3.78D-04 Max=7.99D-03 NDo=     1
 LinEq1:  Iter=  4 NonCon=     1 RMS=1.37D-04 Max=1.65D-03 NDo=     1
 LinEq1:  Iter=  5 NonCon=     1 RMS=7.63D-05 Max=1.41D-03 NDo=     1
 LinEq1:  Iter=  6 NonCon=     1 RMS=2.44D-05 Max=2.92D-04 NDo=     1
 LinEq1:  Iter=  7 NonCon=     1 RMS=8.28D-06 Max=1.13D-04 NDo=     1
 LinEq1:  Iter=  8 NonCon=     1 RMS=4.04D-06 Max=6.29D-05 NDo=     1
 LinEq1:  Iter=  9 NonCon=     1 RMS=1.05D-06 Max=1.23D-05 NDo=     1
 LinEq1:  Iter= 10 NonCon=     1 RMS=2.32D-07 Max=3.04D-06 NDo=     1
 LinEq1:  Iter= 11 NonCon=     1 RMS=4.96D-08 Max=8.47D-07 NDo=     1
 LinEq1:  Iter= 12 NonCon=     1 RMS=1.17D-08 Max=1.85D-07 NDo=     1
 LinEq1:  Iter= 13 NonCon=     1 RMS=2.07D-09 Max=2.46D-08 NDo=     1
 LinEq1:  Iter= 14 NonCon=     1 RMS=4.32D-10 Max=5.66D-09 NDo=     1
 LinEq1:  Iter= 15 NonCon=     0 RMS=8.83D-11 Max=9.47D-10 NDo=     1
 Linear equations converged to 1.000D-10 1.000D-09 after    15 iterations.
 End of Minotr F.D. properties file   721 does not exist.
 End of Minotr F.D. properties file   722 does not exist.
 End of Minotr F.D. properties file   788 does not exist.
 Leave Link 1002 at Sun Mar  6 19:30:12 2022, MaxMem= 16106127360 cpu:              65.4 elap:               2.4
 (Enter /sw/contrib/gaussian/g16/B01/g16/l1102.exe)
 Use density number 2.
 Symmetrizing basis deriv contribution to polar:
 IMax=3 JMax=2 DiffMx= 0.00D+00
 Leave Link 1102 at Sun Mar  6 19:30:12 2022, MaxMem= 16106127360 cpu:               0.8 elap:               0.1
 (Enter /sw/contrib/gaussian/g16/B01/g16/l1110.exe)
 Forming Gx(P) for generalized density number  2 NAtomX=     5.
 Integral derivatives from FoFJK, PRISM(SPDF).
 Do as many integral derivatives as possible in FoFJK.
 G2DrvN: MDV=   16106126844.
 G2DrvN: will do     6 centers at a time, making    1 passes.
 Calling FoFCou, ICntrl=  3107 FMM=F I1Cent=   0 AccDes= 0.00D+00.
 FoFJK:  IHMeth= 1 ICntrl=    3107 DoSepK=F KAlg= 0 I1Cent=           0 FoldK=F
 IRaf=         0 NMat=       1 IRICut=       1 DoRegI=T DoRafI=F ISym2E= 1 IDoP0=0 IntGTp=1.
 FoFCou: FMM=F IPFlag=           0 FMFlag=      100000 FMFlg1=           0
         NFxFlg=           0 DoJE=F BraDBF=F KetDBF=F FulRan=T
         wScrn=  0.000000 ICntrl=      3107 IOpCl=  0 I1Cent=           0 NGrid=           0
         NMat0=    1 NMatS0=      1 NMatT0=    0 NMatD0=    1 NMtDS0=    0 NMtDT0=    0
 Petite list used in FoFCou.
 End of G2Drv F.D. properties file   721 does not exist.
 End of G2Drv F.D. properties file   722 does not exist.
 End of G2Drv F.D. properties file   788 does not exist.
 Leave Link 1110 at Sun Mar  6 19:30:15 2022, MaxMem= 16106127360 cpu:              86.9 elap:               3.1
 (Enter /sw/contrib/gaussian/g16/B01/g16/l1112.exe)
 MP22nd: MDV=   16106127360
 This link is doing NAtomX=     5 total of    18 degrees of freedom.
 Using ON3 I/O method in MakUI.
 Frozen-core window:  NFC=   4 NFV=   0.
 Using Ix for Sx.
 Use MO integrals over full window.
 Using OV2 memory method for fx*t*t/D, MaxI=    16 DoOO2=F NP=  28.
 R2 and R3 integrals will be kept in memory, NReq=   915591705.
 FoFCou: FMM=F IPFlag=           0 FMFlag=           0 FMFlg1=           0
         NFxFlg=           0 DoJE=F BraDBF=F KetDBF=F FulRan=T
         wScrn=  0.000000 ICntrl=       600 IOpCl=  0 I1Cent=           0 NGrid=           0
         NMat0=    1 NMatS0=      1 NMatT0=    0 NMatD0=    1 NMtDS0=    0 NMtDT0=    0
 Symmetry not used in FoFCou.
 DD1Dir will call FoFMem   1 times, MxPair=       272
 NAB=   136 NAA=     0 NBB=     0.
 Symmetry is being used.
 FoFJK:  IHMeth= 1 ICntrl=       0 DoSepK=F KAlg= 0 I1Cent=           0 FoldK=F
 IRaf=         0 NMat=      18 IRICut=      45 DoRegI=T DoRafI=T ISym2E= 2 IDoP0=3 IntGTp=3.
 Discarding MO integrals.
 Leave Link 1112 at Sun Mar  6 19:30:51 2022, MaxMem= 16106127360 cpu:             997.0 elap:              36.1
 (Enter /sw/contrib/gaussian/g16/B01/g16/l601.exe)
 Copying SCF densities to generalized density rwf, IOpCl= 0 IROHF=0.

 **********************************************************************

            Population analysis using the MP2 Density.

 **********************************************************************

 Orbital symmetries:
       Occupied  (A') (A') (A') (A') (A') (A') (A') (A') (A') (A')
                 (A") (A') (A") (A') (A') (A")
       Virtual   (A') (A") (A') (A') (A") (A') (A') (A') (A") (A')
                 (A") (A') (A') (A') (A") (A') (A') (A") (A') (A')
                 (A') (A') (A') (A') (A") (A') (A') (A") (A') (A')
                 (A') (A") (A") (A') (A') (A') (A") (A') (A") (A')
                 (A") (A") (A') (A') (A") (A') (A') (A") (A') (A')
                 (A') (A") (A') (A') (A") (A') (A") (A') (A') (A")
                 (A') (A') (A") (A') (A') (A") (A') (A") (A') (A')
                 (A") (A') (A") (A") (A') (A') (A") (A') (A') (A')
                 (A") (A') (A') (A") (A') (A") (A") (A') (A') (A')
                 (A') (A') (A") (A") (A') (A') (A") (A") (A') (A")
                 (A') (A') (A") (A') (A") (A') (A') (A') (A") (A")
                 (A') (A') (A') (A') (A") (A') (A') (A') (A") (A')
                 (A") (A') (A") (A') (A") (A") (A') (A") (A') (A')
                 (A') (A') (A") (A') (A') (A") (A") (A') (A') (A")
                 (A') (A") (A') (A') (A') (A") (A') (A') (A') (A")
                 (A') (A') (A') (A") (A') (A") (A") (A') (A') (A")
                 (A') (A") (A') (A") (A") (A') (A") (A') (A") (A")
                 (A') (A") (A") (A') (A') (A") (A') (A') (A") (A')
                 (A') (A') (A') (A') (A') (A') (A') (A') (A') (A')
                 (A')
 The electronic state is 1-A'.
 Alpha  occ. eigenvalues --  -20.71957 -20.68870 -20.66875 -15.82719  -1.64620
 Alpha  occ. eigenvalues --   -1.50650  -1.29393  -0.96033  -0.83677  -0.75985
 Alpha  occ. eigenvalues --   -0.74088  -0.63830  -0.61937  -0.61880  -0.50623
 Alpha  occ. eigenvalues --   -0.49775
 Alpha virt. eigenvalues --    0.03550   0.05925   0.09498   0.10027   0.11927
 Alpha virt. eigenvalues --    0.12261   0.14930   0.15324   0.17732   0.17958
 Alpha virt. eigenvalues --    0.18957   0.21076   0.21704   0.24217   0.24630
 Alpha virt. eigenvalues --    0.26840   0.31386   0.31824   0.33758   0.34400
 Alpha virt. eigenvalues --    0.34861   0.39285   0.45028   0.49232   0.50582
 Alpha virt. eigenvalues --    0.51801   0.54227   0.56031   0.59662   0.62091
 Alpha virt. eigenvalues --    0.63859   0.69172   0.71583   0.72377   0.74165
 Alpha virt. eigenvalues --    0.76521   0.76695   0.79559   0.80630   0.83697
 Alpha virt. eigenvalues --    0.84324   0.85341   0.88494   0.90840   0.92855
 Alpha virt. eigenvalues --    0.94962   0.95286   1.01987   1.03668   1.06800
 Alpha virt. eigenvalues --    1.07089   1.09747   1.14647   1.15605   1.16971
 Alpha virt. eigenvalues --    1.22123   1.22848   1.24979   1.34634   1.36220
 Alpha virt. eigenvalues --    1.36952   1.46837   1.48416   1.50180   1.54766
 Alpha virt. eigenvalues --    1.59720   1.59820   1.60273   1.62977   1.69390
 Alpha virt. eigenvalues --    1.75048   1.80032   1.82865   1.88747   1.91221
 Alpha virt. eigenvalues --    1.93526   1.97886   1.98783   2.05323   2.12586
 Alpha virt. eigenvalues --    2.13501   2.17024   2.19218   2.24202   2.26087
 Alpha virt. eigenvalues --    2.29840   2.35741   2.36791   2.39098   2.40436
 Alpha virt. eigenvalues --    2.43660   2.46965   2.48073   2.53158   2.54237
 Alpha virt. eigenvalues --    2.54753   2.56157   2.61710   2.63278   2.67195
 Alpha virt. eigenvalues --    2.67549   2.75180   2.80155   2.81108   2.85440
 Alpha virt. eigenvalues --    2.91666   2.98639   3.04794   3.05014   3.11821
 Alpha virt. eigenvalues --    3.12590   3.18090   3.22596   3.31414   3.33146
 Alpha virt. eigenvalues --    3.35659   3.48542   3.67719   3.87137   3.94676
 Alpha virt. eigenvalues --    4.19041   4.22060   4.22757   4.26888   4.36761
 Alpha virt. eigenvalues --    4.49695   4.53110   4.55465   4.61576   4.68915
 Alpha virt. eigenvalues --    4.81342   4.89771   4.91568   4.93602   4.99911
 Alpha virt. eigenvalues --    5.00462   5.10853   5.13366   5.17597   5.25332
 Alpha virt. eigenvalues --    5.25473   5.31827   5.34229   5.38590   5.54541
 Alpha virt. eigenvalues --    5.64422   5.71127   5.89797   5.99538   6.26515
 Alpha virt. eigenvalues --    6.30078   6.35277   6.37398   6.60354   6.65235
 Alpha virt. eigenvalues --    6.66507   6.69311   6.72387   6.79325   6.80888
 Alpha virt. eigenvalues --    6.84979   6.96914   7.03998   7.06647   7.07359
 Alpha virt. eigenvalues --    7.12455   7.17522   7.18148   7.20780   7.24756
 Alpha virt. eigenvalues --    7.25155   7.27363   7.35200   7.40439   7.43871
 Alpha virt. eigenvalues --    7.44107   7.46558   7.55952   7.66304   7.68003
 Alpha virt. eigenvalues --    7.79766   7.89176   7.95212   8.08610   8.32543
 Alpha virt. eigenvalues --    8.49403   8.65197  13.62633  14.79424  15.12433
 Alpha virt. eigenvalues --   15.82141
          Condensed to atoms (all electrons):
               1          2          3          4          5
     1  H    0.585561   0.121080   0.021208   0.001956  -0.000933
     2  O    0.121080   8.393516  -0.228348  -0.001260  -0.009720
     3  O    0.021208  -0.228348   8.371338  -0.170399  -0.032665
     4  N    0.001956  -0.001260  -0.170399   7.139183  -0.126714
     5  O   -0.000933  -0.009720  -0.032665  -0.126714   8.361987
 Mulliken charges:
               1
     1  H    0.271128
     2  O   -0.275268
     3  O    0.038864
     4  N    0.157233
     5  O   -0.191957
 Sum of Mulliken charges =  -0.00000
 Mulliken charges with hydrogens summed into heavy atoms:
               1
     2  O   -0.004141
     3  O    0.038864
     4  N    0.157233
     5  O   -0.191957
 APT charges:
               1
     1  H    0.273364
     2  O   -0.304538
     3  O   -0.307574
     4  N    0.643306
     5  O   -0.304558
 Sum of APT charges =  -0.00000
 APT charges with hydrogens summed into heavy atoms:
               1
     2  O   -0.031174
     3  O   -0.307574
     4  N    0.643306
     5  O   -0.304558
 Electronic spatial extent (au):  <R**2>=            206.9294
 Charge=             -0.0000 electrons
 Dipole moment (field-independent basis, Debye):
    X=             -0.0049    Y=             -1.0738    Z=              0.0000  Tot=              1.0738
 Quadrupole moment (field-independent basis, Debye-Ang):
   XX=            -23.4654   YY=            -22.9513   ZZ=            -21.9243
   XY=             -1.8710   XZ=              0.0000   YZ=              0.0000
 Traceless Quadrupole moment (field-independent basis, Debye-Ang):
   XX=             -0.6850   YY=             -0.1710   ZZ=              0.8560
   XY=             -1.8710   XZ=              0.0000   YZ=              0.0000
 Octapole moment (field-independent basis, Debye-Ang**2):
  XXX=              2.3584  YYY=              0.2909  ZZZ=              0.0000  XYY=              2.2987
  XXY=             -2.6613  XXZ=              0.0000  XZZ=             -0.5855  YZZ=             -0.7050
  YYZ=              0.0000  XYZ=              0.0000
 Hexadecapole moment (field-independent basis, Debye-Ang**3):
 XXXX=           -126.7495 YYYY=            -94.8090 ZZZZ=            -18.0212 XXXY=            -21.3496
 XXXZ=              0.0000 YYYX=            -19.7679 YYYZ=              0.0000 ZZZX=              0.0000
 ZZZY=              0.0000 XXYY=            -35.6170 XXZZ=            -24.2593 YYZZ=            -18.5748
 XXYZ=              0.0000 YYXZ=              0.0000 ZZXY=             -5.9371
 N-N= 1.228644590515D+02 E-N=-9.072651012651D+02  KE= 2.802116949003D+02
 Symmetry A'   KE= 2.663624844351D+02
 Symmetry A"   KE= 1.384921046521D+01
  Exact polarizability:  30.894   4.238  29.813   0.000   0.000  17.580
 Approx polarizability:  24.630   0.626  27.603  -0.000  -0.000  15.491
 No NMR shielding tensors so no spin-rotation constants.
 Leave Link  601 at Sun Mar  6 19:30:51 2022, MaxMem= 16106127360 cpu:               7.2 elap:               0.3
 (Enter /sw/contrib/gaussian/g16/B01/g16/l701.exe)
 ... and contract with generalized density number  2.
 Compute integral second derivatives.
 Leave Link  701 at Sun Mar  6 19:30:51 2022, MaxMem= 16106127360 cpu:               6.8 elap:               0.3
 (Enter /sw/contrib/gaussian/g16/B01/g16/l702.exe)
 L702 exits ... SP integral derivatives will be done elsewhere.
 Leave Link  702 at Sun Mar  6 19:30:52 2022, MaxMem= 16106127360 cpu:               1.0 elap:               0.1
 (Enter /sw/contrib/gaussian/g16/B01/g16/l703.exe)
 Integral derivatives from FoFJK, PRISM(SPDF).
 Compute integral second derivatives, UseDBF=F ICtDFT=           0.
 Calling FoFJK, ICntrl=  10100127 FMM=F ISym2X=1 I1Cent= 0 IOpClX= 0 NMat=1 NMatS=1 NMatT=0.
 FoFJK:  IHMeth= 1 ICntrl=10100127 DoSepK=F KAlg= 0 I1Cent=           0 FoldK=F
 IRaf=         0 NMat=       1 IRICut=       1 DoRegI=T DoRafI=F ISym2E= 1 IDoP0=0 IntGTp=1.
 FoFCou: FMM=F IPFlag=           0 FMFlag=      100000 FMFlg1=         800
         NFxFlg=           0 DoJE=F BraDBF=F KetDBF=F FulRan=T
         wScrn=  0.000000 ICntrl=  10100127 IOpCl=  0 I1Cent=           0 NGrid=           0
         NMat0=    1 NMatS0=      1 NMatT0=    0 NMatD0=    1 NMtDS0=    0 NMtDT0=    0
 Petite list used in FoFCou.
 Leave Link  703 at Sun Mar  6 19:31:08 2022, MaxMem= 16106127360 cpu:             448.1 elap:              16.0
 (Enter /sw/contrib/gaussian/g16/B01/g16/l716.exe)
 Dipole        =-1.91718279D-03-4.22448977D-01 0.00000000D+00
 Polarizability= 3.08942299D+01 4.23823372D+00 2.98133722D+01
                 0.00000000D+00 0.00000000D+00 1.75803372D+01
 Full mass-weighted force constant matrix:
 Low frequencies ---  -84.9903  -29.9076   -0.0009   -0.0006    0.0007   30.6749
 Low frequencies ---  378.0436  398.2972  520.9509
 Diagonal vibrational polarizability:
        7.0817905       9.9899069      13.9599585
 Harmonic frequencies (cm**-1), IR intensities (KM/Mole), Raman scattering
 activities (A**4/AMU), depolarization ratios for plane and unpolarized
 incident light, reduced masses (AMU), force constants (mDyne/A),
 and normal coordinates:
                      1                      2                      3
                     A"                     A'                     A"
 Frequencies --    376.5170               398.2845               520.6855
 Red. masses --      1.5445                 7.2693                 2.9286
 Frc consts  --      0.1290                 0.6794                 0.4678
 IR Inten    --     60.7891                 7.9585                24.3840
  Atom  AN      X      Y      Z        X      Y      Z        X      Y      Z
     1   1    -0.00  -0.00   0.98    -0.72  -0.25  -0.00    -0.00  -0.00   0.93
     2   8    -0.00  -0.00  -0.11    -0.33  -0.32   0.00    -0.00  -0.00   0.06
     3   8    -0.00   0.00   0.11    -0.07   0.08  -0.00    -0.00   0.00  -0.19
     4   7     0.00   0.00  -0.11     0.06   0.10   0.00     0.00   0.00   0.27
     5   8     0.00   0.00   0.03     0.39   0.17   0.00     0.00   0.00  -0.17
                      4                      5                      6
                     A'                     A'                     A'
 Frequencies --    713.3961               841.2363               974.6236
 Red. masses --     13.4418                13.3491                 9.8139
 Frc consts  --      4.0306                 5.5659                 5.4924
 IR Inten    --    215.0852                32.0542                12.6546
  Atom  AN      X      Y      Z        X      Y      Z        X      Y      Z
     1   1    -0.35   0.01   0.00     0.36  -0.13  -0.00    -0.63   0.02   0.00
     2   8    -0.01  -0.08   0.00     0.56  -0.21  -0.00     0.19  -0.17  -0.00
     3   8     0.38   0.58  -0.00    -0.40  -0.02   0.00    -0.35   0.41   0.00
     4   7    -0.42  -0.46   0.00    -0.44  -0.06  -0.00     0.38   0.04  -0.00
     5   8     0.02  -0.10  -0.00     0.21   0.29   0.00    -0.13  -0.28   0.00
                      7                      8                      9
                     A'                     A'                     A'
 Frequencies --   1458.9781              1578.5602              3473.3426
 Red. masses --      1.3944                 4.6134                 1.0635
 Frc consts  --      1.7488                 6.7732                 7.5595
 IR Inten    --     82.6276               150.2424                46.5000
  Atom  AN      X      Y      Z        X      Y      Z        X      Y      Z
     1   1     0.96  -0.23   0.00     0.83  -0.21   0.00     0.18   0.98  -0.00
     2   8    -0.06  -0.05   0.00    -0.02  -0.03   0.00    -0.01  -0.06   0.00
     3   8    -0.03   0.06  -0.00     0.02   0.06  -0.00     0.00  -0.00  -0.00
     4   7     0.07  -0.07   0.00    -0.20   0.33   0.00    -0.00   0.00  -0.00
     5   8    -0.03   0.07  -0.00     0.12  -0.31  -0.00     0.00  -0.00   0.00

 -------------------
 - Thermochemistry -
 -------------------
 Temperature   298.150 Kelvin.  Pressure   1.00000 Atm.
 Atom     1 has atomic number  1 and mass   1.00783
 Atom     2 has atomic number  8 and mass  15.99491
 Atom     3 has atomic number  8 and mass  15.99491
 Atom     4 has atomic number  7 and mass  14.00307
 Atom     5 has atomic number  8 and mass  15.99491
 Molecular mass:    62.99564 amu.
 Principal axes and moments of inertia in atomic units:
                           1         2         3
     Eigenvalues --    84.27299 222.51415 306.78714
           X            0.79480  -0.60687   0.00000
           Y            0.60687   0.79480   0.00000
           Z            0.00000   0.00000   1.00000
 This molecule is an asymmetric top.
 Rotational symmetry number  1.
 Rotational temperatures (Kelvin)      1.02778     0.38925     0.28233
 Rotational constants (GHZ):          21.41542     8.11068     5.88271
 Zero-point vibrational energy      61820.8 (Joules/Mol)
                                   14.77552 (Kcal/Mol)
 Warning -- explicit consideration of   3 degrees of freedom as
           vibrations may cause significant error
 Vibrational temperatures:    541.72   573.04   749.15  1026.42  1210.35
          (Kelvin)           1402.27  2099.14  2271.20  4997.37
 
 Zero-point correction=                           0.023546 (Hartree/Particle)
 Thermal correction to Energy=                    0.027457
 Thermal correction to Enthalpy=                  0.028401
 Thermal correction to Gibbs Free Energy=        -0.002403
 Sum of electronic and zero-point Energies=           -280.431486
 Sum of electronic and thermal Energies=              -280.427575
 Sum of electronic and thermal Enthalpies=            -280.426631
 Sum of electronic and thermal Free Energies=         -280.457435
 
                     E (Thermal)             CV                S
                      KCal/Mol        Cal/Mol-Kelvin    Cal/Mol-Kelvin
 Total                   17.229             12.098             64.832
 Electronic               0.000              0.000              0.000
 Translational            0.889              2.981             38.341
 Rotational               0.889              2.981             23.269
 Vibrational             15.452              6.136              3.223
 Vibration     1          0.747              1.520              1.053
 Vibration     2          0.765              1.474              0.969
 Vibration     3          0.876              1.204              0.608
                       Q            Log10(Q)             Ln(Q)
 Total Bot       0.127450D+02          1.105340          2.545140
 Total V=0       0.862719D+12         11.935869         27.483355
 Vib (Bot)       0.238855D-10        -10.621866        -24.457751
 Vib (Bot)    1  0.481371D+00         -0.317520         -0.731117
 Vib (Bot)    2  0.448071D+00         -0.348653         -0.802804
 Vib (Bot)    3  0.309807D+00         -0.508909         -1.171805
 Vib (V=0)       0.161682D+01          0.208663          0.480463
 Vib (V=0)    1  0.119406D+01          0.077026          0.177358
 Vib (V=0)    2  0.117139D+01          0.068702          0.158193
 Vib (V=0)    3  0.108820D+01          0.036709          0.084526
 Electronic      0.100000D+01          0.000000          0.000000
 Translational   0.196526D+08          7.293420         16.793719
 Rotational      0.271511D+05          4.433787         10.209172
 
                                                                title
                                                             IR Spectrum
 
     3                                                                     1   1                                                     
     4                                                                     5   4                 9    8   7      5    33             
     7                                                                     7   5                 7    4   1      2    97             
     3                                                                     9   9                 5    1   3      1    87             
 
     X                                                                     X   X                 X    X   X      X    XX             
     X                                                                     X   X                      X   X      X     X             
     X                                                                     X   X                      X   X            X             
     X                                                                     X   X                          X            X             
                                                                           X   X                          X            X             
                                                                           X   X                          X            X             
                                                                           X   X                          X                          
                                                                           X   X                          X                          
                                                                           X                              X                          
                                                                           X                              X                          
                                                                           X                              X                          
                                                                           X                              X                          
                                                                           X                              X                          
                                                                           X                              X                          
                                                                                                          X                          
                                                                                                          X                          
                                                                                                          X                          
                                                                                                          X                          
                                                                                                          X                          
                                                                                                          X                          
 
 ***** Axes restored to original set *****
 -------------------------------------------------------------------
 Center     Atomic                   Forces (Hartrees/Bohr)
 Number     Number              X              Y              Z
 -------------------------------------------------------------------
      1        1          -0.005621553   -0.000000000   -0.001902554
      2        8           0.003567605   -0.000000000   -0.002292040
      3        8           0.002300765   -0.000000000    0.002915992
      4        7           0.000807042   -0.000000000    0.001951478
      5        8          -0.001053860   -0.000000000   -0.000672876
 -------------------------------------------------------------------
 Cartesian Forces:  Max     0.005621553 RMS     0.002206390
 -----------------------------------------------------------------------------------------------
                       Internal Coordinate Forces (Hartree/Bohr or radian)
  Cent   Atom   N1       Length/X         N2         Alpha/Y        N3         Beta/Z          J
 -----------------------------------------------------------------------------------------------
      1  H 
      2  O        1   0.001903(     1)
      3  O        2   0.002639(     2)      1   0.010468(     5)
      4  N        3  -0.001220(     3)      2   0.000078(     6)      1   0.000000(     8)     0
      5  O        4   0.001149(     4)      3  -0.001113(     7)      2   0.000000(     9)     0
 -----------------------------------------------------------------------------------------------
 Internal  Forces:  Max     0.010467670 RMS     0.003714980
 Force constants in Cartesian coordinates: 
                1             2             3             4             5 
      1  0.767234D-01
      2  0.000000D+00  0.617179D-02
      3  0.284945D-01  0.000000D+00  0.432457D+00
      4 -0.483789D-01  0.000000D+00 -0.538671D-02  0.276836D+00
      5  0.000000D+00 -0.431070D-02  0.000000D+00  0.000000D+00  0.156279D-01
      6  0.297845D-01  0.000000D+00 -0.416914D+00 -0.142244D-01  0.000000D+00
      7 -0.306025D-01  0.000000D+00 -0.183956D-01 -0.173932D+00  0.000000D+00
      8  0.000000D+00 -0.220393D-02  0.000000D+00  0.000000D+00 -0.208883D-01
      9 -0.443862D-01  0.000000D+00 -0.225699D-01  0.119279D-01  0.000000D+00
     10 -0.899334D-02  0.000000D+00  0.814616D-02 -0.817460D-01  0.000000D+00
     11  0.000000D+00  0.831449D-02  0.000000D+00  0.000000D+00  0.202762D-01
     12 -0.197691D-01  0.000000D+00  0.148631D-01  0.127997D-01  0.000000D+00
     13  0.112513D-01  0.000000D+00 -0.128583D-01  0.272210D-01  0.000000D+00
     14  0.000000D+00 -0.797165D-02  0.000000D+00  0.000000D+00 -0.107051D-01
     15  0.587623D-02  0.000000D+00 -0.783664D-02 -0.511647D-02  0.000000D+00
                6             7             8             9            10 
      6  0.519161D+00
      7 -0.898779D-01  0.313843D+00
      8  0.000000D+00  0.000000D+00  0.415268D-01
      9 -0.909436D-01  0.854453D-01  0.000000D+00  0.312855D+00
     10  0.417099D-01 -0.143906D+00  0.000000D+00 -0.310641D-01  0.576097D+00
     11  0.000000D+00  0.000000D+00 -0.489991D-01  0.000000D+00  0.000000D+00
     12 -0.138830D-01  0.216344D-01  0.000000D+00 -0.256012D-01  0.239418D+00
     13  0.326078D-01  0.345982D-01  0.000000D+00 -0.219230D-01 -0.341451D+00
     14  0.000000D+00  0.000000D+00  0.305646D-01  0.000000D+00  0.000000D+00
     15  0.257956D-02  0.119386D-02  0.000000D+00 -0.173740D+00 -0.258210D+00
               11            12            13            14            15 
     11  0.579624D-01
     12  0.000000D+00  0.430189D+00
     13  0.000000D+00 -0.254083D+00  0.268381D+00
     14 -0.375539D-01  0.000000D+00  0.000000D+00  0.256660D-01
     15  0.000000D+00 -0.405568D+00  0.256257D+00  0.000000D+00  0.584565D+00
 Force constants in internal coordinates: 
                1             2             3             4             5 
      1  0.432457D+00
      2  0.251129D-01  0.264961D+00
      3  0.845285D-02  0.159643D-01  0.206966D+00
      4 -0.137103D-01  0.230030D-01  0.149597D+00  0.722909D+00
      5  0.474375D-01  0.679208D-01 -0.242622D-01  0.208282D-01  0.269574D+00
      6  0.149817D-01  0.255193D-01  0.909377D-01  0.114822D-01  0.644520D-03
      7  0.140597D-01 -0.764218D-01  0.120486D+00  0.119669D+00 -0.252265D-01
      8  0.000000D+00  0.000000D+00  0.000000D+00  0.000000D+00  0.000000D+00
      9  0.000000D+00  0.000000D+00  0.000000D+00  0.000000D+00  0.000000D+00
                6             7             8             9 
      6  0.535756D+00
      7  0.633172D-01  0.665491D+00
      8  0.000000D+00  0.000000D+00  0.229229D-01
      9  0.000000D+00  0.000000D+00  0.302167D-01  0.111196D+00
 Leave Link  716 at Sun Mar  6 19:31:08 2022, MaxMem= 16106127360 cpu:               0.8 elap:               0.1
 (Enter /sw/contrib/gaussian/g16/B01/g16/l103.exe)

 GradGradGradGradGradGradGradGradGradGradGradGradGradGradGradGradGradGrad
 Berny optimization.
 Search for a local minimum.
 Step number   1 out of a maximum of    2
 All quantities printed in internal units (Hartrees-Bohrs-Radians)
 Second derivative matrix not updated -- analytic derivatives used.
 The second derivative matrix:
                          r1        r2        r3        r4        a1
           r1           0.43246
           r2           0.02511   0.26496
           r3           0.00845   0.01596   0.20697
           r4          -0.01371   0.02300   0.14960   0.72291
           a1           0.04744   0.06792  -0.02426   0.02083   0.26957
           a2           0.01498   0.02552   0.09094   0.01148   0.00064
           a3           0.01406  -0.07642   0.12049   0.11967  -0.02523
           d1           0.00000   0.00000   0.00000   0.00000   0.00000
           d2           0.00000   0.00000   0.00000   0.00000   0.00000
                          a2        a3        d1        d2
           a2           0.53576
           a3           0.06332   0.66549
           d1           0.00000   0.00000   0.02292
           d2           0.00000   0.00000   0.03022   0.11120
 ITU=  0
     Eigenvalues ---    0.01357   0.12055   0.12518   0.20469   0.29000
     Eigenvalues ---    0.44843   0.53093   0.61026   0.88862
 Angle between quadratic step and forces=  18.59 degrees.
 Linear search not attempted -- first point.
 Variable       Old X    -DE/DX   Delta X   Delta X   Delta X     New X
                                 (Linear)    (Quad)   (Total)
    r1        1.86209   0.00190   0.00000   0.00023   0.00023   1.86232
    r2        2.69614   0.00264   0.00000   0.00008   0.00008   2.69622
    r3        2.60992  -0.00122   0.00000  -0.00227  -0.00227   2.60764
    r4        2.25782   0.00115   0.00000   0.00095   0.00095   2.25877
    a1        1.71594   0.01047   0.00000   0.03849   0.03849   1.75443
    a2        1.97463   0.00008   0.00000   0.00046   0.00046   1.97508
    a3        1.99550  -0.00111   0.00000  -0.00001  -0.00001   1.99549
    d1        0.00000   0.00000   0.00000   0.00000   0.00000   0.00000
    d2        0.00000   0.00000   0.00000   0.00000   0.00000   0.00000
         Item               Value     Threshold  Converged?
 Maximum Force            0.010468     0.000450     NO 
 RMS     Force            0.003715     0.000300     NO 
 Maximum Displacement     0.038490     0.001800     NO 
 RMS     Displacement     0.012857     0.001200     NO 
 Predicted change in Energy=-2.037289D-04
                       ----------------------------
                       ! Non-Optimized Parameters !
                       ! (Angstroms and Degrees)  !
 ----------------------                            ----------------------
 !      Name          Value   Derivative information (Atomic Units)     !
 ------------------------------------------------------------------------
 !       r1          0.9855   -DE/DX =    0.0019                        !
 !       r2          1.4268   -DE/DX =    0.0026                        !
 !       r3          1.3799   -DE/DX =   -0.0012                        !
 !       r4          1.1953   -DE/DX =    0.0011                        !
 !       a1        100.5213   -DE/DX =    0.0105                        !
 !       a2        113.1639   -DE/DX =    0.0001                        !
 !       a3        114.3332   -DE/DX =   -0.0011                        !
 !       d1          0.0      -DE/DX =    0.0                           !
 !       d2          0.0      -DE/DX =    0.0                           !
 ------------------------------------------------------------------------
 GradGradGradGradGradGradGradGradGradGradGradGradGradGradGradGradGradGrad

 Leave Link  103 at Sun Mar  6 19:31:08 2022, MaxMem= 16106127360 cpu:               0.6 elap:               0.0
 (Enter /sw/contrib/gaussian/g16/B01/g16/l9999.exe)

 ----------------------------------------------------------------------

 Electric dipole moment (input orientation):
 (Debye = 10**-18 statcoulomb cm , SI units = C m)
                  (au)            (Debye)         (10**-30 SI)
   Tot        0.422453D+00      0.107377D+01      0.358171D+01
   x         -0.102835D+00     -0.261380D+00     -0.871868D+00
   y          0.000000D+00      0.000000D+00      0.000000D+00
   z         -0.409746D+00     -0.104147D+01     -0.347397D+01

 Dipole polarizability, Alpha (input orientation).
 (esu units = cm**3 , SI units = C**2 m**2 J**-1)
 Alpha(0;0):
               (au)            (10**-24 esu)      (10**-40 SI)
   iso        0.260960D+02      0.386703D+01      0.430265D+01
   aniso      0.147623D+02      0.218755D+01      0.243397D+01
   xx         0.287927D+02      0.426664D+01      0.474728D+01
   yx         0.000000D+00      0.000000D+00      0.000000D+00
   yy         0.175803D+02      0.260514D+01      0.289861D+01
   zx        -0.397715D+01     -0.589353D+00     -0.655744D+00
   zy         0.000000D+00      0.000000D+00      0.000000D+00
   zz         0.319149D+02      0.472930D+01      0.526205D+01

 ----------------------------------------------------------------------

 Dipole orientation:
     1          0.00000000         -0.00000000         -0.00000000
     8         -0.45327498         -0.00000000         -1.80608093
     8          2.03934869         -0.00000000         -2.83370268
     7          3.90222558         -0.00000000         -1.00576751
     8          3.12542716          0.00000000          1.11422041

 Electric dipole moment (dipole orientation):
 (Debye = 10**-18 statcoulomb cm , SI units = C m)
                  (au)            (Debye)         (10**-30 SI)
   Tot        0.422453D+00      0.107377D+01      0.358171D+01
   x          0.000000D+00      0.000000D+00      0.000000D+00
   y          0.000000D+00      0.000000D+00      0.000000D+00
   z          0.422453D+00      0.107377D+01      0.358171D+01

 Dipole polarizability, Alpha (dipole orientation).
 (esu units = cm**3 , SI units = C**2 m**2 J**-1)
 Alpha(0;0):
               (au)            (10**-24 esu)      (10**-40 SI)
   iso        0.260960D+02      0.386703D+01      0.430265D+01
   aniso      0.147623D+02      0.218755D+01      0.243397D+01
   xx         0.308557D+02      0.457235D+01      0.508742D+01
   yx         0.000000D+00      0.000000D+00      0.000000D+00
   yy         0.175803D+02      0.260514D+01      0.289861D+01
   zx         0.424296D+01      0.628742D+00      0.699570D+00
   zy         0.000000D+00      0.000000D+00      0.000000D+00
   zz         0.298519D+02      0.442359D+01      0.492191D+01

 ----------------------------------------------------------------------
 1\1\GINC-N2110\Freq\RMP2-FC\Aug-CC-pVTZ\H1N1O3\CGAVINH\06-Mar-2022\1\\
 #p freq mp2/aug-cc-pvtz density=current\\title\\0,1\H\O,1,r1\O,2,r2,1,
 a1\N,3,r3,2,a2,1,d1,0\O,4,r4,3,a3,2,d2,0\\r1=0.98537664\r2=1.42673666\
 r3=1.38110764\r4=1.19478846\a1=98.31602063\a2=113.13777052\a3=114.3339
 2022\d1=0.\d2=0.\\Version=ES64L-G16RevB.01\State=1-A'\HF=-279.5057067\
 MP2=-280.4550319\RMSD=4.509e-09\RMSF=2.206e-03\ZeroPoint=0.0235463\The
 rmal=0.0274567\Dipole=-0.1028346,0.,-0.4097461\DipoleDeriv=0.3213073,0
 .,0.0285722,0.,0.292638,0.,-0.0441863,0.,0.2061472,-0.5246223,0.,0.303
 4724,0.,-0.2491537,0.,-0.0746082,0.,-0.1398384,0.039406,0.,0.2900968,0
 .,-0.0120958,0.,0.3954684,0.,-0.9500327,0.1682483,0.,-0.0729188,0.,0.0
 126607,0.,-0.5966658,0.,1.7490099,-0.0043393,0.,-0.5492226,0.,-0.04404
 92,0.,0.3199918,0.,-0.865286\Polar=28.7927248,0.,17.5803372,-3.9771509
 ,0.,31.9148774\Quadrupole=0.1821059,0.6364287,-0.8185345,0.,1.3119252,
 0.\PG=CS [SG(H1N1O3)]\NImag=0\\0.07672335,0.,0.00617179,0.02849446,0.,
 0.43245700,-0.04837889,0.,-0.00538671,0.27683596,0.,-0.00431070,0.,0.,
 0.01562792,0.02978454,0.,-0.41691357,-0.01422439,0.,0.51916061,-0.0306
 0245,0.,-0.01839558,-0.17393206,0.,-0.08987792,0.31384273,0.,-0.002203
 93,0.,0.,-0.02088833,0.,0.,0.04152677,-0.04438615,0.,-0.02256987,0.011
 92790,0.,-0.09094363,0.08544527,0.,0.31285501,-0.00899334,0.,0.0081461
 6,-0.08174602,0.,0.04170992,-0.14390646,0.,-0.03106406,0.57609715,0.,0
 .00831449,0.,0.,0.02027616,0.,0.,-0.04899913,0.,0.,0.05796242,-0.01976
 907,0.,0.01486310,0.01279967,0.,-0.01388296,0.02163437,0.,-0.02560118,
 0.23941817,0.,0.43018903,0.01125134,0.,-0.01285833,0.02722101,0.,0.032
 60784,0.03459824,0.,-0.02192296,-0.34145133,0.,-0.25408314,0.26838074,
 0.,-0.00797165,0.,0.,-0.01070505,0.,0.,0.03056462,0.,0.,-0.03755394,0.
 ,0.,0.02566603,0.00587623,0.,-0.00783664,-0.00511647,0.,0.00257956,0.0
 0119386,0.,-0.17374033,-0.25821019,0.,-0.40556799,0.25625658,0.,0.5845
 6540\\0.00562155,0.,0.00190255,-0.00356761,0.,0.00229204,-0.00230077,0
 .,-0.00291599,-0.00080704,0.,-0.00195148,0.00105386,0.,0.00067288\\\@


 Time has a wonderful way of weeding out the trivial.
                                -- Richard Ben Sapir
 Job cpu time:       0 days  2 hours  2 minutes  4.8 seconds.
 Elapsed time:       0 days  0 hours  4 minutes 25.0 seconds.
 File lengths (MBytes):  RWF=   7239 Int=      0 D2E=      0 Chk=      8 Scr=      1
 Normal termination of Gaussian 16 at Sun Mar  6 19:31:09 2022.
