 Entering Gaussian System, Link 0=g16
 Input=hoono_a2_113p8953.gjf
 Output=hoono_a2_113p8953.log
 Initial command:
 /sw/contrib/gaussian/g16/B01/g16/l1.exe "/scr/Gau-11924.inp" -scrdir="/scr/"
 Entering Link 1 = /sw/contrib/gaussian/g16/B01/g16/l1.exe PID=     11925.
  
 Copyright (c) 1988-2017, Gaussian, Inc.  All Rights Reserved.
  
 This is part of the Gaussian(R) 16 program.  It is based on
 the Gaussian(R) 09 system (copyright 2009, Gaussian, Inc.),
 the Gaussian(R) 03 system (copyright 2003, Gaussian, Inc.),
 the Gaussian(R) 98 system (copyright 1998, Gaussian, Inc.),
 the Gaussian(R) 94 system (copyright 1995, Gaussian, Inc.),
 the Gaussian 92(TM) system (copyright 1992, Gaussian, Inc.),
 the Gaussian 90(TM) system (copyright 1990, Gaussian, Inc.),
 the Gaussian 88(TM) system (copyright 1988, Gaussian, Inc.),
 the Gaussian 86(TM) system (copyright 1986, Carnegie Mellon
 University), and the Gaussian 82(TM) system (copyright 1983,
 Carnegie Mellon University). Gaussian is a federally registered
 trademark of Gaussian, Inc.
  
 This software contains proprietary and confidential information,
 including trade secrets, belonging to Gaussian, Inc.
  
 This software is provided under written license and may be
 used, copied, transmitted, or stored only in accord with that
 written license.
  
 The following legend is applicable only to US Government
 contracts under FAR:
  
                    RESTRICTED RIGHTS LEGEND
  
 Use, reproduction and disclosure by the US Government is
 subject to restrictions as set forth in subparagraphs (a)
 and (c) of the Commercial Computer Software - Restricted
 Rights clause in FAR 52.227-19.
  
 Gaussian, Inc.
 340 Quinnipiac St., Bldg. 40, Wallingford CT 06492
  
  
 ---------------------------------------------------------------
 Warning -- This program may not be used in any manner that
 competes with the business of Gaussian, Inc. or will provide
 assistance to any competitor of Gaussian, Inc.  The licensee
 of this program is prohibited from giving any competitor of
 Gaussian, Inc. access to this program.  By using this program,
 the user acknowledges that Gaussian, Inc. is engaged in the
 business of creating and licensing software in the field of
 computational chemistry and represents and warrants to the
 licensee that it is not a competitor of Gaussian, Inc. and that
 it will not use this program in any manner prohibited above.
 ---------------------------------------------------------------
  

 Cite this work as:
 Gaussian 16, Revision B.01,
 M. J. Frisch, G. W. Trucks, H. B. Schlegel, G. E. Scuseria, 
 M. A. Robb, J. R. Cheeseman, G. Scalmani, V. Barone, 
 G. A. Petersson, H. Nakatsuji, X. Li, M. Caricato, A. V. Marenich, 
 J. Bloino, B. G. Janesko, R. Gomperts, B. Mennucci, H. P. Hratchian, 
 J. V. Ortiz, A. F. Izmaylov, J. L. Sonnenberg, D. Williams-Young, 
 F. Ding, F. Lipparini, F. Egidi, J. Goings, B. Peng, A. Petrone, 
 T. Henderson, D. Ranasinghe, V. G. Zakrzewski, J. Gao, N. Rega, 
 G. Zheng, W. Liang, M. Hada, M. Ehara, K. Toyota, R. Fukuda, 
 J. Hasegawa, M. Ishida, T. Nakajima, Y. Honda, O. Kitao, H. Nakai, 
 T. Vreven, K. Throssell, J. A. Montgomery, Jr., J. E. Peralta, 
 F. Ogliaro, M. J. Bearpark, J. J. Heyd, E. N. Brothers, K. N. Kudin, 
 V. N. Staroverov, T. A. Keith, R. Kobayashi, J. Normand, 
 K. Raghavachari, A. P. Rendell, J. C. Burant, S. S. Iyengar, 
 J. Tomasi, M. Cossi, J. M. Millam, M. Klene, C. Adamo, R. Cammi, 
 J. W. Ochterski, R. L. Martin, K. Morokuma, O. Farkas, 
 J. B. Foresman, and D. J. Fox, Gaussian, Inc., Wallingford CT, 2016.
 
 ******************************************
 Gaussian 16:  ES64L-G16RevB.01 20-Dec-2017
                 6-Mar-2022 
 ******************************************
 %nproc=28
 Will use up to   28 processors via shared memory.
 %mem=120GB
 %chk=hoono_a2_113p8953.chk
 ---------------------------------------
 #p freq mp2/aug-cc-pvtz density=current
 ---------------------------------------
 1/10=4,30=1,38=1/1,3;
 2/12=2,17=6,18=5,40=1/2;
 3/5=16,6=1,7=10,11=9,25=1,30=1,71=2,140=1/1,2,3;
 4//1;
 5/5=2,38=5,98=1/2;
 8/6=3,8=1,10=1,19=11,30=-1/1;
 9/15=3,16=-3/6;
 11/6=1,8=1,15=11,17=12,24=-1,27=1,28=-2,29=300,32=6,42=3/1,2,10;
 10/6=2,21=1/2;
 8/6=4,8=1,10=1,19=11,30=-1/11,4;
 10/5=1,20=4/2;
 11/12=2,14=11,16=1,17=2,28=-2,42=3,76=2/2,10,12;
 6/7=2,8=2,9=2,10=2,22=-1/1;
 7/8=1,10=1,12=2,25=1,44=2/1,2,3,16;
 1/10=4,30=1/3;
 99//99;
 Leave Link    1 at Sun Mar  6 19:29:33 2022, MaxMem= 16106127360 cpu:               2.6 elap:               0.1
 (Enter /sw/contrib/gaussian/g16/B01/g16/l101.exe)
 -----
 title
 -----
 Symbolic Z-matrix:
 Charge =  0 Multiplicity = 1
 H
 O                    1    r1
 O                    2    r2       1    a1
 N                    3    r3       2    a2       1    d1       0
 O                    4    r4       3    a3       2    d2       0
       Variables:
  r1                    0.98538                  
  r2                    1.42674                  
  r3                    1.38111                  
  r4                    1.19479                  
  a1                  100.63551                  
  a2                  113.89531                  
  a3                  114.33392                  
  d1                    0.                       
  d2                    0.                       
 
 ITRead=  0  0  0  0  0
 MicOpt= -1 -1 -1 -1 -1
 NAtoms=      5 NQM=        5 NQMF=       0 NMMI=      0 NMMIF=      0
                NMic=       0 NMicF=      0.
                    Isotopes and Nuclear Properties:
 (Nuclear quadrupole moments (NQMom) in fm**2, nuclear magnetic moments (NMagM)
  in nuclear magnetons)

  Atom         1           2           3           4           5
 IAtWgt=           1          16          16          14          16
 AtmWgt=   1.0078250  15.9949146  15.9949146  14.0030740  15.9949146
 NucSpn=           1           0           0           2           0
 AtZEff=  -0.0000000  -0.0000000  -0.0000000  -0.0000000  -0.0000000
 NQMom=    0.0000000   0.0000000   0.0000000   2.0440000   0.0000000
 NMagM=    2.7928460   0.0000000   0.0000000   0.4037610   0.0000000
 AtZNuc=   1.0000000   8.0000000   8.0000000   7.0000000   8.0000000
 Leave Link  101 at Sun Mar  6 19:29:33 2022, MaxMem= 16106127360 cpu:               2.3 elap:               0.1
 (Enter /sw/contrib/gaussian/g16/B01/g16/l103.exe)

 GradGradGradGradGradGradGradGradGradGradGradGradGradGradGradGradGradGrad
 Berny optimization.
 Initialization pass.
                       ----------------------------
                       !    Initial Parameters    !
                       ! (Angstroms and Degrees)  !
 ----------------------                            ----------------------
 !      Name          Value   Derivative information (Atomic Units)     !
 ------------------------------------------------------------------------
 !       r1          0.9854   calculate D2E/DX2 analytically            !
 !       r2          1.4267   calculate D2E/DX2 analytically            !
 !       r3          1.3811   calculate D2E/DX2 analytically            !
 !       r4          1.1948   calculate D2E/DX2 analytically            !
 !       a1        100.6355   calculate D2E/DX2 analytically            !
 !       a2        113.8953   calculate D2E/DX2 analytically            !
 !       a3        114.3339   calculate D2E/DX2 analytically            !
 !       d1          0.0      calculate D2E/DX2 analytically            !
 !       d2          0.0      calculate D2E/DX2 analytically            !
 ------------------------------------------------------------------------
 Trust Radius=3.00D-01 FncErr=1.00D-07 GrdErr=1.00D-07 EigMax=2.50D+02 EigMin=1.00D-04
 Number of steps in this run=      2 maximum allowed number of steps=      2.
 GradGradGradGradGradGradGradGradGradGradGradGradGradGradGradGradGradGrad

 Leave Link  103 at Sun Mar  6 19:29:33 2022, MaxMem= 16106127360 cpu:               0.7 elap:               0.1
 (Enter /sw/contrib/gaussian/g16/B01/g16/l202.exe)
                          Input orientation:                          
 ---------------------------------------------------------------------
 Center     Atomic      Atomic             Coordinates (Angstroms)
 Number     Number       Type             X           Y           Z
 ---------------------------------------------------------------------
      1          1           0        0.000000    0.000000    0.000000
      2          8           0        0.000000    0.000000    0.985377
      3          8           0        1.402227    0.000000    1.248696
      4          7           0        2.185107    0.000000    0.110910
      5          8           0        1.567329    0.000000   -0.911768
 ---------------------------------------------------------------------
                    Distance matrix (angstroms):
                    1          2          3          4          5
     1  H    0.000000
     2  O    0.985377   0.000000
     3  O    1.877627   1.426737   0.000000
     4  N    2.187920   2.353590   1.381108   0.000000
     5  O    1.813241   2.460829   2.166763   1.194788   0.000000
 Stoichiometry    HNO3
 Framework group  CS[SG(HNO3)]
 Deg. of freedom     7
 Full point group                 CS      NOp   2
 Largest Abelian subgroup         CS      NOp   2
 Largest concise Abelian subgroup C1      NOp   1
                         Standard orientation:                         
 ---------------------------------------------------------------------
 Center     Atomic      Atomic             Coordinates (Angstroms)
 Number     Number       Type             X           Y           Z
 ---------------------------------------------------------------------
      1          1           0        1.125146   -0.591005    0.000000
      2          8           0        1.321586    0.374593    0.000000
      3          8           0       -0.000000    0.912168    0.000000
      4          7           0       -0.993989   -0.046708    0.000000
      5          8           0       -0.592489   -1.172016    0.000000
 ---------------------------------------------------------------------
 Rotational constants (GHZ):          21.4943805           8.0178872           5.8395892
 Leave Link  202 at Sun Mar  6 19:29:33 2022, MaxMem= 16106127360 cpu:               2.5 elap:               0.1
 (Enter /sw/contrib/gaussian/g16/B01/g16/l301.exe)
 Standard basis: Aug-CC-pVTZ (5D, 7F)
 Ernie: Thresh=  0.10000D-02 Tol=  0.10000D-05 Strict=F.
 Ernie:  12 primitive shells out of 131 were deleted.
 There are   166 symmetry adapted cartesian basis functions of A'  symmetry.
 There are    79 symmetry adapted cartesian basis functions of A"  symmetry.
 There are   136 symmetry adapted basis functions of A'  symmetry.
 There are    71 symmetry adapted basis functions of A"  symmetry.
   207 basis functions,   315 primitive gaussians,   245 cartesian basis functions
    16 alpha electrons       16 beta electrons
       nuclear repulsion energy       122.5594913160 Hartrees.
 IExCor=    0 DFT=F Ex=HF Corr=None ExCW=0 ScaHFX=  1.000000
 ScaDFX=  1.000000  1.000000  1.000000  1.000000 ScalE2=  1.000000  1.000000
 IRadAn=      5 IRanWt=     -1 IRanGd=            0 ICorTp=0 IEmpDi=  4
 NAtoms=    5 NActive=    5 NUniq=    5 SFac= 1.00D+00 NAtFMM=   60 NAOKFM=F Big=F
 Integral buffers will be    131072 words long.
 Raffenetti 1 integral format.
 Two-electron integral symmetry is turned on.
 Leave Link  301 at Sun Mar  6 19:29:33 2022, MaxMem= 16106127360 cpu:               2.0 elap:               0.1
 (Enter /sw/contrib/gaussian/g16/B01/g16/l302.exe)
 NPDir=0 NMtPBC=     1 NCelOv=     1 NCel=       1 NClECP=     1 NCelD=      1
         NCelK=      1 NCelE2=     1 NClLst=     1 CellRange=     0.0.
 One-electron integrals computed using PRISM.
 One-electron integral symmetry used in STVInt
 NBasis=   207 RedAO= T EigKep=  1.31D-04  NBF=   136    71
 NBsUse=   207 1.00D-06 EigRej= -1.00D+00 NBFU=   136    71
 Leave Link  302 at Sun Mar  6 19:29:33 2022, MaxMem= 16106127360 cpu:               4.6 elap:               0.2
 (Enter /sw/contrib/gaussian/g16/B01/g16/l303.exe)
 DipDrv:  MaxL=1.
 Leave Link  303 at Sun Mar  6 19:29:33 2022, MaxMem= 16106127360 cpu:               0.8 elap:               0.1
 (Enter /sw/contrib/gaussian/g16/B01/g16/l401.exe)
 ExpMin= 2.53D-02 ExpMax= 1.53D+04 ExpMxC= 5.22D+02 IAcc=3 IRadAn=         5 AccDes= 0.00D+00
 Harris functional with IExCor=  205 and IRadAn=       5 diagonalized for initial guess.
 HarFok:  IExCor=  205 AccDes= 0.00D+00 IRadAn=         5 IDoV= 1 UseB2=F ITyADJ=14
 ICtDFT=  3500011 ScaDFX=  1.000000  1.000000  1.000000  1.000000
 FoFCou: FMM=F IPFlag=           0 FMFlag=      100000 FMFlg1=           0
         NFxFlg=           0 DoJE=T BraDBF=F KetDBF=T FulRan=T
         wScrn=  0.000000 ICntrl=       500 IOpCl=  0 I1Cent=   200000004 NGrid=           0
         NMat0=    1 NMatS0=      1 NMatT0=    0 NMatD0=    1 NMtDS0=    0 NMtDT0=    0
 Petite list used in FoFCou.
 Harris En= -279.644749746880    
 JPrj=0 DoOrth=F DoCkMO=F.
 Initial guess orbital symmetries:
       Occupied  (A') (A') (A') (A') (A') (A') (A') (A') (A') (A')
                 (A") (A') (A") (A') (A") (A')
       Virtual   (A") (A') (A') (A') (A') (A") (A') (A') (A') (A')
                 (A") (A') (A") (A') (A') (A") (A') (A') (A") (A')
                 (A') (A') (A') (A') (A") (A') (A') (A') (A") (A')
                 (A') (A") (A") (A') (A') (A") (A') (A") (A') (A")
                 (A') (A") (A') (A") (A') (A') (A') (A') (A") (A')
                 (A') (A") (A') (A") (A') (A") (A') (A') (A') (A")
                 (A') (A') (A") (A') (A') (A') (A") (A") (A') (A')
                 (A") (A') (A") (A") (A') (A') (A") (A') (A') (A')
                 (A") (A') (A') (A") (A') (A") (A") (A') (A') (A')
                 (A') (A") (A') (A") (A') (A') (A") (A') (A") (A')
                 (A") (A') (A') (A") (A") (A') (A') (A') (A") (A')
                 (A") (A') (A') (A') (A") (A') (A') (A') (A") (A')
                 (A") (A') (A') (A") (A") (A") (A") (A') (A') (A')
                 (A') (A') (A') (A") (A') (A") (A') (A") (A') (A')
                 (A") (A') (A") (A') (A') (A") (A') (A') (A') (A")
                 (A') (A') (A') (A") (A') (A") (A") (A') (A") (A')
                 (A') (A") (A") (A') (A") (A') (A') (A") (A") (A')
                 (A") (A") (A") (A') (A") (A') (A') (A') (A') (A")
                 (A') (A') (A') (A') (A') (A') (A') (A') (A') (A')
                 (A')
 The electronic state of the initial guess is 1-A'.
 Leave Link  401 at Sun Mar  6 19:29:34 2022, MaxMem= 16106127360 cpu:               6.7 elap:               0.3
 (Enter /sw/contrib/gaussian/g16/B01/g16/l502.exe)
 Keep R1 ints in memory in symmetry-blocked form, NReq=348887737.
 FoFCou: FMM=F IPFlag=           0 FMFlag=           0 FMFlg1=           0
         NFxFlg=           0 DoJE=F BraDBF=F KetDBF=F FulRan=T
         wScrn=  0.000000 ICntrl=       600 IOpCl=  0 I1Cent=           0 NGrid=           0
         NMat0=    1 NMatS0=  21528 NMatT0=    0 NMatD0=    1 NMtDS0=    0 NMtDT0=    0
 Petite list used in FoFCou.
 Closed shell SCF:
 Using DIIS extrapolation, IDIIS=  1040.
 NGot= 16106127360 LenX= 15988850015 LenY= 15988789549
 Requested convergence on RMS density matrix=1.00D-08 within 128 cycles.
 Requested convergence on MAX density matrix=1.00D-06.
 Requested convergence on             energy=1.00D-06.
 No special actions if energy rises.

 Cycle   1  Pass 1  IDiag  1:
 E= -279.364420981189    
 DIIS: error= 2.75D-02 at cycle   1 NSaved=   1.
 NSaved= 1 IEnMin= 1 EnMin= -279.364420981189     IErMin= 1 ErrMin= 2.75D-02
 ErrMax= 2.75D-02  0.00D+00 EMaxC= 1.00D-01 BMatC= 4.50D-01 BMatP= 4.50D-01
 IDIUse=3 WtCom= 7.25D-01 WtEn= 2.75D-01
 Coeff-Com:  0.100D+01
 Coeff-En:   0.100D+01
 Coeff:      0.100D+01
 Gap=     0.498 Goal=   None    Shift=    0.000
 GapD=    0.498 DampG=2.000 DampE=0.500 DampFc=1.0000 IDamp=-1.
 RMSDP=1.67D-03 MaxDP=8.77D-02              OVMax= 1.23D-01

 Cycle   2  Pass 1  IDiag  1:
 E= -279.446392236774     Delta-E=       -0.081971255585 Rises=F Damp=F
 DIIS: error= 1.92D-02 at cycle   2 NSaved=   2.
 NSaved= 2 IEnMin= 2 EnMin= -279.446392236774     IErMin= 2 ErrMin= 1.92D-02
 ErrMax= 1.92D-02  0.00D+00 EMaxC= 1.00D-01 BMatC= 8.59D-02 BMatP= 4.50D-01
 IDIUse=3 WtCom= 8.08D-01 WtEn= 1.92D-01
 Coeff-Com:  0.218D+00 0.782D+00
 Coeff-En:   0.767D-01 0.923D+00
 Coeff:      0.191D+00 0.809D+00
 Gap=     0.561 Goal=   None    Shift=    0.000
 RMSDP=9.65D-04 MaxDP=3.65D-02 DE=-8.20D-02 OVMax= 9.12D-02

 Cycle   3  Pass 1  IDiag  1:
 E= -279.484142214637     Delta-E=       -0.037749977863 Rises=F Damp=F
 DIIS: error= 1.11D-02 at cycle   3 NSaved=   3.
 NSaved= 3 IEnMin= 3 EnMin= -279.484142214637     IErMin= 3 ErrMin= 1.11D-02
 ErrMax= 1.11D-02  0.00D+00 EMaxC= 1.00D-01 BMatC= 3.09D-02 BMatP= 8.59D-02
 IDIUse=3 WtCom= 8.89D-01 WtEn= 1.11D-01
 Coeff-Com: -0.348D-01 0.365D+00 0.670D+00
 Coeff-En:   0.000D+00 0.218D+00 0.782D+00
 Coeff:     -0.309D-01 0.348D+00 0.683D+00
 Gap=     0.541 Goal=   None    Shift=    0.000
 RMSDP=4.10D-04 MaxDP=1.58D-02 DE=-3.77D-02 OVMax= 3.91D-02

 Cycle   4  Pass 1  IDiag  1:
 E= -279.505267026508     Delta-E=       -0.021124811871 Rises=F Damp=F
 DIIS: error= 1.62D-03 at cycle   4 NSaved=   4.
 NSaved= 4 IEnMin= 4 EnMin= -279.505267026508     IErMin= 4 ErrMin= 1.62D-03
 ErrMax= 1.62D-03  0.00D+00 EMaxC= 1.00D-01 BMatC= 5.94D-04 BMatP= 3.09D-02
 IDIUse=3 WtCom= 9.84D-01 WtEn= 1.62D-02
 Coeff-Com: -0.119D-01 0.463D-01 0.152D+00 0.813D+00
 Coeff-En:   0.000D+00 0.000D+00 0.000D+00 0.100D+01
 Coeff:     -0.117D-01 0.456D-01 0.150D+00 0.816D+00
 Gap=     0.528 Goal=   None    Shift=    0.000
 RMSDP=9.88D-05 MaxDP=2.31D-03 DE=-2.11D-02 OVMax= 1.18D-02

 Cycle   5  Pass 1  IDiag  1:
 E= -279.506075535244     Delta-E=       -0.000808508736 Rises=F Damp=F
 DIIS: error= 1.09D-03 at cycle   5 NSaved=   5.
 NSaved= 5 IEnMin= 5 EnMin= -279.506075535244     IErMin= 5 ErrMin= 1.09D-03
 ErrMax= 1.09D-03  0.00D+00 EMaxC= 1.00D-01 BMatC= 1.02D-04 BMatP= 5.94D-04
 IDIUse=3 WtCom= 9.89D-01 WtEn= 1.09D-02
 Coeff-Com:  0.538D-02-0.659D-01-0.110D+00 0.612D-01 0.111D+01
 Coeff-En:   0.000D+00 0.000D+00 0.000D+00 0.000D+00 0.100D+01
 Coeff:      0.532D-02-0.652D-01-0.109D+00 0.605D-01 0.111D+01
 Gap=     0.532 Goal=   None    Shift=    0.000
 RMSDP=7.96D-05 MaxDP=2.12D-03 DE=-8.09D-04 OVMax= 1.29D-02

 Cycle   6  Pass 1  IDiag  1:
 E= -279.506436833975     Delta-E=       -0.000361298730 Rises=F Damp=F
 DIIS: error= 3.28D-04 at cycle   6 NSaved=   6.
 NSaved= 6 IEnMin= 6 EnMin= -279.506436833975     IErMin= 6 ErrMin= 3.28D-04
 ErrMax= 3.28D-04  0.00D+00 EMaxC= 1.00D-01 BMatC= 2.41D-05 BMatP= 1.02D-04
 IDIUse=3 WtCom= 9.97D-01 WtEn= 3.28D-03
 Coeff-Com:  0.188D-02-0.705D-02-0.177D-01-0.184D+00 0.157D-01 0.119D+01
 Coeff-En:   0.000D+00 0.000D+00 0.000D+00 0.000D+00 0.000D+00 0.100D+01
 Coeff:      0.187D-02-0.703D-02-0.177D-01-0.183D+00 0.156D-01 0.119D+01
 Gap=     0.532 Goal=   None    Shift=    0.000
 RMSDP=4.66D-05 MaxDP=1.08D-03 DE=-3.61D-04 OVMax= 6.09D-03

 Cycle   7  Pass 1  IDiag  1:
 E= -279.506522766706     Delta-E=       -0.000085932732 Rises=F Damp=F
 DIIS: error= 1.34D-04 at cycle   7 NSaved=   7.
 NSaved= 7 IEnMin= 7 EnMin= -279.506522766706     IErMin= 7 ErrMin= 1.34D-04
 ErrMax= 1.34D-04  0.00D+00 EMaxC= 1.00D-01 BMatC= 3.60D-06 BMatP= 2.41D-05
 IDIUse=3 WtCom= 9.99D-01 WtEn= 1.34D-03
 Coeff-Com: -0.109D-02 0.114D-01 0.251D-01 0.163D-01-0.182D+00-0.150D+00
 Coeff-Com:  0.128D+01
 Coeff-En:   0.000D+00 0.000D+00 0.000D+00 0.000D+00 0.000D+00 0.000D+00
 Coeff-En:   0.100D+01
 Coeff:     -0.109D-02 0.114D-01 0.250D-01 0.163D-01-0.182D+00-0.150D+00
 Coeff:      0.128D+01
 Gap=     0.532 Goal=   None    Shift=    0.000
 RMSDP=1.76D-05 MaxDP=5.12D-04 DE=-8.59D-05 OVMax= 2.34D-03

 Cycle   8  Pass 1  IDiag  1:
 E= -279.506534846921     Delta-E=       -0.000012080215 Rises=F Damp=F
 DIIS: error= 4.73D-05 at cycle   8 NSaved=   8.
 NSaved= 8 IEnMin= 8 EnMin= -279.506534846921     IErMin= 8 ErrMin= 4.73D-05
 ErrMax= 4.73D-05  0.00D+00 EMaxC= 1.00D-01 BMatC= 6.01D-07 BMatP= 3.60D-06
 IDIUse=1 WtCom= 1.00D+00 WtEn= 0.00D+00
 Coeff-Com: -0.561D-03 0.410D-02 0.973D-02 0.251D-01-0.577D-01-0.192D+00
 Coeff-Com:  0.353D+00 0.859D+00
 Coeff:     -0.561D-03 0.410D-02 0.973D-02 0.251D-01-0.577D-01-0.192D+00
 Coeff:      0.353D+00 0.859D+00
 Gap=     0.532 Goal=   None    Shift=    0.000
 RMSDP=5.46D-06 MaxDP=1.54D-04 DE=-1.21D-05 OVMax= 6.54D-04

 Cycle   9  Pass 1  IDiag  1:
 E= -279.506536233960     Delta-E=       -0.000001387039 Rises=F Damp=F
 DIIS: error= 2.51D-05 at cycle   9 NSaved=   9.
 NSaved= 9 IEnMin= 9 EnMin= -279.506536233960     IErMin= 9 ErrMin= 2.51D-05
 ErrMax= 2.51D-05  0.00D+00 EMaxC= 1.00D-01 BMatC= 1.17D-07 BMatP= 6.01D-07
 IDIUse=1 WtCom= 1.00D+00 WtEn= 0.00D+00
 Coeff-Com:  0.242D-03-0.257D-02-0.534D-02-0.562D-02 0.471D-01 0.493D-01
 Coeff-Com: -0.340D+00 0.314D-01 0.123D+01
 Coeff:      0.242D-03-0.257D-02-0.534D-02-0.562D-02 0.471D-01 0.493D-01
 Coeff:     -0.340D+00 0.314D-01 0.123D+01
 Gap=     0.532 Goal=   None    Shift=    0.000
 RMSDP=2.47D-06 MaxDP=6.65D-05 DE=-1.39D-06 OVMax= 2.59D-04

 Cycle  10  Pass 1  IDiag  1:
 E= -279.506536499317     Delta-E=       -0.000000265357 Rises=F Damp=F
 DIIS: error= 5.88D-06 at cycle  10 NSaved=  10.
 NSaved=10 IEnMin=10 EnMin= -279.506536499317     IErMin=10 ErrMin= 5.88D-06
 ErrMax= 5.88D-06  0.00D+00 EMaxC= 1.00D-01 BMatC= 8.33D-09 BMatP= 1.17D-07
 IDIUse=1 WtCom= 1.00D+00 WtEn= 0.00D+00
 Coeff-Com: -0.390D-04 0.504D-03 0.122D-02-0.187D-02-0.111D-01 0.500D-02
 Coeff-Com:  0.741D-01-0.536D-01-0.442D+00 0.143D+01
 Coeff:     -0.390D-04 0.504D-03 0.122D-02-0.187D-02-0.111D-01 0.500D-02
 Coeff:      0.741D-01-0.536D-01-0.442D+00 0.143D+01
 Gap=     0.532 Goal=   None    Shift=    0.000
 RMSDP=7.11D-07 MaxDP=2.60D-05 DE=-2.65D-07 OVMax= 7.54D-05

 Cycle  11  Pass 1  IDiag  1:
 E= -279.506536524392     Delta-E=       -0.000000025075 Rises=F Damp=F
 DIIS: error= 2.22D-06 at cycle  11 NSaved=  11.
 NSaved=11 IEnMin=11 EnMin= -279.506536524392     IErMin=11 ErrMin= 2.22D-06
 ErrMax= 2.22D-06  0.00D+00 EMaxC= 1.00D-01 BMatC= 8.17D-10 BMatP= 8.33D-09
 IDIUse=1 WtCom= 1.00D+00 WtEn= 0.00D+00
 Coeff-Com: -0.153D-04 0.152D-03 0.311D-03 0.933D-03-0.190D-02-0.720D-02
 Coeff-Com:  0.168D-01 0.204D-01-0.376D-01-0.352D+00 0.136D+01
 Coeff:     -0.153D-04 0.152D-03 0.311D-03 0.933D-03-0.190D-02-0.720D-02
 Coeff:      0.168D-01 0.204D-01-0.376D-01-0.352D+00 0.136D+01
 Gap=     0.532 Goal=   None    Shift=    0.000
 RMSDP=2.43D-07 MaxDP=9.00D-06 DE=-2.51D-08 OVMax= 2.84D-05

 Cycle  12  Pass 1  IDiag  1:
 E= -279.506536527353     Delta-E=       -0.000000002961 Rises=F Damp=F
 DIIS: error= 6.83D-07 at cycle  12 NSaved=  12.
 NSaved=12 IEnMin=12 EnMin= -279.506536527353     IErMin=12 ErrMin= 6.83D-07
 ErrMax= 6.83D-07  0.00D+00 EMaxC= 1.00D-01 BMatC= 8.29D-11 BMatP= 8.17D-10
 IDIUse=1 WtCom= 1.00D+00 WtEn= 0.00D+00
 Coeff-Com:  0.279D-05-0.466D-04-0.994D-04 0.109D-03 0.112D-02-0.560D-03
 Coeff-Com: -0.737D-02 0.577D-02 0.399D-01-0.102D+00-0.199D+00 0.126D+01
 Coeff:      0.279D-05-0.466D-04-0.994D-04 0.109D-03 0.112D-02-0.560D-03
 Coeff:     -0.737D-02 0.577D-02 0.399D-01-0.102D+00-0.199D+00 0.126D+01
 Gap=     0.532 Goal=   None    Shift=    0.000
 RMSDP=8.27D-08 MaxDP=2.68D-06 DE=-2.96D-09 OVMax= 9.54D-06

 Cycle  13  Pass 1  IDiag  1:
 E= -279.506536527643     Delta-E=       -0.000000000290 Rises=F Damp=F
 DIIS: error= 1.57D-07 at cycle  13 NSaved=  13.
 NSaved=13 IEnMin=13 EnMin= -279.506536527643     IErMin=13 ErrMin= 1.57D-07
 ErrMax= 1.57D-07  0.00D+00 EMaxC= 1.00D-01 BMatC= 6.75D-12 BMatP= 8.29D-11
 IDIUse=1 WtCom= 1.00D+00 WtEn= 0.00D+00
 Coeff-Com:  0.120D-05-0.110D-04-0.151D-04-0.120D-03 0.281D-04 0.904D-03
 Coeff-Com: -0.875D-03-0.250D-02-0.273D-02 0.546D-01-0.126D+00-0.149D+00
 Coeff-Com:  0.122D+01
 Coeff:      0.120D-05-0.110D-04-0.151D-04-0.120D-03 0.281D-04 0.904D-03
 Coeff:     -0.875D-03-0.250D-02-0.273D-02 0.546D-01-0.126D+00-0.149D+00
 Coeff:      0.122D+01
 Gap=     0.532 Goal=   None    Shift=    0.000
 RMSDP=2.15D-08 MaxDP=6.32D-07 DE=-2.90D-10 OVMax= 2.02D-06

 Cycle  14  Pass 1  IDiag  1:
 E= -279.506536527661     Delta-E=       -0.000000000018 Rises=F Damp=F
 DIIS: error= 4.08D-08 at cycle  14 NSaved=  14.
 NSaved=14 IEnMin=14 EnMin= -279.506536527661     IErMin=14 ErrMin= 4.08D-08
 ErrMax= 4.08D-08  0.00D+00 EMaxC= 1.00D-01 BMatC= 4.68D-13 BMatP= 6.75D-12
 IDIUse=1 WtCom= 1.00D+00 WtEn= 0.00D+00
 Coeff-Com: -0.307D-06 0.449D-05 0.889D-05-0.304D-05-0.111D-03 0.511D-04
 Coeff-Com:  0.636D-03-0.290D-03-0.348D-02 0.756D-02 0.165D-01-0.892D-01
 Coeff-Com: -0.146D-01 0.108D+01
 Coeff:     -0.307D-06 0.449D-05 0.889D-05-0.304D-05-0.111D-03 0.511D-04
 Coeff:      0.636D-03-0.290D-03-0.348D-02 0.756D-02 0.165D-01-0.892D-01
 Coeff:     -0.146D-01 0.108D+01
 Gap=     0.532 Goal=   None    Shift=    0.000
 RMSDP=4.22D-09 MaxDP=1.05D-07 DE=-1.78D-11 OVMax= 4.59D-07

 SCF Done:  E(RHF) =  -279.506536528     A.U. after   14 cycles
            NFock= 14  Conv=0.42D-08     -V/T= 2.0022
 KE= 2.788800436554D+02 PE=-9.059893673691D+02 EE= 2.250432958700D+02
 Leave Link  502 at Sun Mar  6 19:29:37 2022, MaxMem= 16106127360 cpu:              57.5 elap:               3.7
 (Enter /sw/contrib/gaussian/g16/B01/g16/l801.exe)
 ExpMin= 2.53D-02 ExpMax= 1.53D+04 ExpMxC= 5.22D+02 IAcc=3 IRadAn=         5 AccDes= 0.00D+00
 HarFok:  IExCor=  205 AccDes= 0.00D+00 IRadAn=         5 IDoV=-2 UseB2=F ITyADJ=14
 ICtDFT= 12500011 ScaDFX=  1.000000  1.000000  1.000000  1.000000
 Largest valence mixing into a core orbital is  2.07D-04
 Largest core mixing into a valence orbital is  3.10D-05
 Range of M.O.s used for correlation:     5   207
 NBasis=   207 NAE=    16 NBE=    16 NFC=     4 NFV=     0
 NROrb=    203 NOA=    12 NOB=    12 NVA=   191 NVB=   191

 **** Warning!!: The largest alpha MO coefficient is  0.15814264D+02

 Leave Link  801 at Sun Mar  6 19:29:38 2022, MaxMem= 16106127360 cpu:               2.3 elap:               0.1
 (Enter /sw/contrib/gaussian/g16/B01/g16/l906.exe)
 Frozen-core derivative calculation, NFC=   4 NFV=   0.
 FulOut=F Deriv=T AODrv=T NAtomX=     5
   MMem=           0  MDisk=          12 MDiskD=          12
  W3Min=      811440 MinDsk=     2425030 NBas6D=         245
 NBas2D=       30762    NTT=       30135    LW2=     7400000
    MDV= 16105571616 MDiskM=      328644 NBas2p=       30759
 Disk-based method using ON**2 memory for 12 occupieds at a time.
 Permanent disk used for amplitudes=    11516536 words.
 Estimated scratch disk usage=   321863743 words.
 IMap=   1   2   3   4   5   6   7   8   9  10  11  12  13  14  15  16
 Actual    scratch disk usage=   310892607 words.
 JobTyp=1 Pass  1:  I=   5 to  16 NPSUse= 28 ParTrn=T ParDer=T DoDerP=T.
 (rs|ai) integrals will be sorted in core.
 Spin components of T(2) and E(2):
     alpha-alpha T2 =       0.3479290567D-01 E2=     -0.1245034037D+00
     alpha-beta  T2 =       0.1845577539D+00 E2=     -0.6996556890D+00
     beta-beta   T2 =       0.3479290567D-01 E2=     -0.1245034037D+00
 The integrals were generated   1 times.
 ANorm=    0.1119885514D+01
 E2 =    -0.9486624965D+00 EUMP2 =    -0.28045519902412D+03
 Leave Link  906 at Sun Mar  6 19:31:14 2022, MaxMem= 16106127360 cpu:            2709.0 elap:              96.9
 (Enter /sw/contrib/gaussian/g16/B01/g16/l1101.exe)
 Using compressed Sx but separate Hx and Fx, NAtomX=     5.
 Will process      6 centers per pass.
 Leave Link 1101 at Sun Mar  6 19:31:15 2022, MaxMem= 16106127360 cpu:               5.9 elap:               0.2
 (Enter /sw/contrib/gaussian/g16/B01/g16/l1102.exe)
 Leave Link 1102 at Sun Mar  6 19:31:15 2022, MaxMem= 16106127360 cpu:               1.3 elap:               0.1
 (Enter /sw/contrib/gaussian/g16/B01/g16/l1110.exe)
 Forming Gx(P) for the SCF density, NAtomX=     5.
 Integral derivatives from FoFJK, PRISM(SPDF).
 Do as many integral derivatives as possible in FoFJK.
 G2DrvN: MDV=   16106126844.
 G2DrvN: will do     6 centers at a time, making    1 passes.
 Calling FoFCou, ICntrl=  3107 FMM=F I1Cent=   0 AccDes= 0.00D+00.
 FoFJK:  IHMeth= 1 ICntrl=    3107 DoSepK=F KAlg= 0 I1Cent=           0 FoldK=F
 IRaf=         0 NMat=       1 IRICut=       1 DoRegI=T DoRafI=F ISym2E= 1 IDoP0=0 IntGTp=1.
 FoFCou: FMM=F IPFlag=           0 FMFlag=      100000 FMFlg1=           0
         NFxFlg=           0 DoJE=F BraDBF=F KetDBF=F FulRan=T
         wScrn=  0.000000 ICntrl=      3107 IOpCl=  0 I1Cent=           0 NGrid=           0
         NMat0=    1 NMatS0=      1 NMatT0=    0 NMatD0=    1 NMtDS0=    0 NMtDT0=    0
 Petite list used in FoFCou.
 End of G2Drv F.D. properties file   721 does not exist.
 End of G2Drv F.D. properties file   722 does not exist.
 End of G2Drv F.D. properties file   788 does not exist.
 Leave Link 1110 at Sun Mar  6 19:31:18 2022, MaxMem= 16106127360 cpu:              86.5 elap:               3.1
 (Enter /sw/contrib/gaussian/g16/B01/g16/l1002.exe)
 Minotr:  Closed shell wavefunction.
          IDoAtm=11111
          Frozen-core window.
          Direct CPHF calculation.
          Differentiating once with respect to electric field.
                with respect to dipole field.
          Differentiating once with respect to nuclear coordinates.
          Requested convergence is 1.0D-08 RMS, and 1.0D-07 maximum.
          Secondary convergence is 1.0D-12 RMS, and 1.0D-12 maximum.
          NewPWx=T KeepS1=T KeepF1=T KeepIn=T MapXYZ=F SortEE=F KeepMc=T.
 Keep R1 ints in memory in symmetry-blocked form, NReq=348888983.
 FoFCou: FMM=F IPFlag=           0 FMFlag=           0 FMFlg1=           0
         NFxFlg=           0 DoJE=F BraDBF=F KetDBF=F FulRan=T
         wScrn=  0.000000 ICntrl=       600 IOpCl=  0 I1Cent=           0 NGrid=           0
         NMat0=    1 NMatS0=  21528 NMatT0=    0 NMatD0=    1 NMtDS0=    0 NMtDT0=    0
 Petite list used in FoFCou.
          MDV=   16106127360 using IRadAn=       1.
          Solving linear equations simultaneously, MaxMat=       0.
          There are    18 degrees of freedom in the 1st order CPHF.  IDoFFX=6 NUNeed=    18.
     15 vectors produced by pass  0 Test12= 1.70D-14 5.56D-09 XBig12= 7.91D+00 1.23D+00.
 AX will form    15 AO Fock derivatives at one time.
     15 vectors produced by pass  1 Test12= 1.70D-14 5.56D-09 XBig12= 1.35D+00 2.23D-01.
     15 vectors produced by pass  2 Test12= 1.70D-14 5.56D-09 XBig12= 6.75D-02 5.83D-02.
     15 vectors produced by pass  3 Test12= 1.70D-14 5.56D-09 XBig12= 1.96D-03 1.08D-02.
     15 vectors produced by pass  4 Test12= 1.70D-14 5.56D-09 XBig12= 4.39D-05 1.23D-03.
     15 vectors produced by pass  5 Test12= 1.70D-14 5.56D-09 XBig12= 6.21D-07 1.18D-04.
     15 vectors produced by pass  6 Test12= 1.70D-14 5.56D-09 XBig12= 4.74D-09 1.17D-05.
     14 vectors produced by pass  7 Test12= 1.70D-14 5.56D-09 XBig12= 3.51D-11 8.25D-07.
      3 vectors produced by pass  8 Test12= 1.70D-14 5.56D-09 XBig12= 2.41D-13 6.21D-08.
      1 vectors produced by pass  9 Test12= 1.70D-14 5.56D-09 XBig12= 1.65D-15 6.82D-09.
 InvSVY:  IOpt=1 It=  1 EMax= 1.33D-15
 Solved reduced A of dimension   123 with    15 vectors.
 FullF1:  Do perturbations      1 to      18.
 Saving first derivative matrices.
 End of Minotr F.D. properties file   721 does not exist.
 End of Minotr F.D. properties file   722 does not exist.
 End of Minotr F.D. properties file   788 does not exist.
 Leave Link 1002 at Sun Mar  6 19:31:21 2022, MaxMem= 16106127360 cpu:              76.9 elap:               2.9
 (Enter /sw/contrib/gaussian/g16/B01/g16/l811.exe)
 MDV= 16106127360.
 Form MO integral derivatives with frozen-active canonical formalism.
 MOERI=1 MOERIx=1 NAtoms=     5 NAtomX=     5.
 Discarding MO integrals.
 MO basis two electron integral derivatives will not be stored on disk.
 IAlg= 3 DoFC=T DoPWx=T Debug=F.
 Frozen-core window:  NFC=   4 NFV=   0.
 Reordered first order wavefunction length =     18678272
 In DefCFB: NBatch=  1 ICI= 16 ICA=191 LFMax= 96
            Large arrays: LIAPS=   619940160 LIARS=   288257200 words.
 In StABat: MaxSiz= 55 MinSiz= 25 NAtomB=  5
 DoIAMN: NPSUse= 28.
 Leave Link  811 at Sun Mar  6 19:32:43 2022, MaxMem= 16106127360 cpu:            2287.8 elap:              81.9
 (Enter /sw/contrib/gaussian/g16/B01/g16/l804.exe)
 Frozen-core window:  NFC=   4 NFV=   0.
 Closed-shell transformation, MDV= 16106127360 ITran=4 ISComp=1.
 Semi-Direct transformation.
 ModeAB=           2 MOrb=            16 LenV=   16104919953
 LASXX=     67341636 LTotXX=    67341636 LenRXX=    67341636
 LTotAB=    68301760 MaxLAS=    99807120 LenRXY=    99807120
 NonZer=   134683272 LenScr=   202817536 LnRSAI=           0
 LnScr1=           0 LExtra=           0 Total=    369966292
 MaxDsk=          -1 SrtSym=           F ITran=            4
 DoSDTr:  NPSUse= 28
 JobTyp=0 Pass  1:  I=   1 to  16.
 (rs|ai) integrals will be sorted in core.
 Complete sort for first half transformation.
 First half transformation complete.
 Begin second half transformation for I=  10.
 Begin second half transformation for I=  10.
 Complete sort for second half transformation.
 Second half transformation complete.
 Spin components of T(2) and E(2):
     alpha-alpha T2 =       0.3479290567D-01 E2=     -0.1245034037D+00
     alpha-beta  T2 =       0.1845577539D+00 E2=     -0.6996556890D+00
     beta-beta   T2 =       0.3479290567D-01 E2=     -0.1245034037D+00
 ANorm=    0.1583757283D+01
 E2 =    -0.9486624965D+00 EUMP2 =    -0.28045519902412D+03
 Leave Link  804 at Sun Mar  6 19:32:59 2022, MaxMem= 16106127360 cpu:             444.7 elap:              15.9
 (Enter /sw/contrib/gaussian/g16/B01/g16/l1002.exe)
 Minotr:  Closed shell wavefunction.
          Computing MP2/KS-MP2 derivatives.
          Using Z-Vector for PSCF gradient.
          Skipping F1 and S1 gradient terms here.
          IDoAtm=11111
          Frozen-core window.
          Using MO integrals in the linear equations.
          Forming densities via direct SCF.
          Differentiating once with respect to electric field.
                with respect to dipole field.
          Differentiating once with respect to nuclear coordinates.
          Using symmetry in CPHF.
          Requested convergence is 1.0D-10 RMS, and 1.0D-09 maximum.
          NewPWx=F KeepS1=T KeepF1=T KeepIn=T MapXYZ=F SortEE=F KeepMc=T.
          MDV=   16106127360 using IRadAn=       5.
          Solving linear equations separately, MaxMat=       0.
          There are     1 degrees of freedom in the 1st order CPHF.  IDoFFX=0 NUNeed=     1.
 FoFJK:  IHMeth= 1 ICntrl=       0 DoSepK=F KAlg= 0 I1Cent=           0 FoldK=F
 IRaf=         0 NMat=       1 IRICut=       1 DoRegI=T DoRafI=F ISym2E= 0 IDoP0=0 IntGTp=1.
 FoFCou: FMM=F IPFlag=           0 FMFlag=      100000 FMFlg1=           0
         NFxFlg=           0 DoJE=F BraDBF=F KetDBF=F FulRan=T
         wScrn=  0.000000 ICntrl=         0 IOpCl=  0 I1Cent=           0 NGrid=           0
         NMat0=    1 NMatS0=      1 NMatT0=    0 NMatD0=    1 NMtDS0=    0 NMtDT0=    0
 Symmetry not used in FoFCou.
 LinEq1:  Iter=  0 NonCon=     1 RMS=6.59D-03 Max=1.69D-01 NDo=     1
 LinEq1:  Iter=  1 NonCon=     1 RMS=2.00D-03 Max=3.08D-02 NDo=     1
 LinEq1:  Iter=  2 NonCon=     1 RMS=8.86D-04 Max=1.44D-02 NDo=     1
 LinEq1:  Iter=  3 NonCon=     1 RMS=3.80D-04 Max=8.17D-03 NDo=     1
 LinEq1:  Iter=  4 NonCon=     1 RMS=1.37D-04 Max=1.68D-03 NDo=     1
 LinEq1:  Iter=  5 NonCon=     1 RMS=7.66D-05 Max=1.38D-03 NDo=     1
 LinEq1:  Iter=  6 NonCon=     1 RMS=2.44D-05 Max=3.53D-04 NDo=     1
 LinEq1:  Iter=  7 NonCon=     1 RMS=8.10D-06 Max=1.08D-04 NDo=     1
 LinEq1:  Iter=  8 NonCon=     1 RMS=3.97D-06 Max=6.17D-05 NDo=     1
 LinEq1:  Iter=  9 NonCon=     1 RMS=1.04D-06 Max=1.23D-05 NDo=     1
 LinEq1:  Iter= 10 NonCon=     1 RMS=2.30D-07 Max=3.04D-06 NDo=     1
 LinEq1:  Iter= 11 NonCon=     1 RMS=4.93D-08 Max=8.36D-07 NDo=     1
 LinEq1:  Iter= 12 NonCon=     1 RMS=1.16D-08 Max=1.79D-07 NDo=     1
 LinEq1:  Iter= 13 NonCon=     1 RMS=2.04D-09 Max=2.25D-08 NDo=     1
 LinEq1:  Iter= 14 NonCon=     1 RMS=4.21D-10 Max=5.67D-09 NDo=     1
 LinEq1:  Iter= 15 NonCon=     0 RMS=8.66D-11 Max=8.47D-10 NDo=     1
 Linear equations converged to 1.000D-10 1.000D-09 after    15 iterations.
 End of Minotr F.D. properties file   721 does not exist.
 End of Minotr F.D. properties file   722 does not exist.
 End of Minotr F.D. properties file   788 does not exist.
 Leave Link 1002 at Sun Mar  6 19:33:01 2022, MaxMem= 16106127360 cpu:              66.6 elap:               2.4
 (Enter /sw/contrib/gaussian/g16/B01/g16/l1102.exe)
 Use density number 2.
 Symmetrizing basis deriv contribution to polar:
 IMax=3 JMax=2 DiffMx= 0.00D+00
 Leave Link 1102 at Sun Mar  6 19:33:01 2022, MaxMem= 16106127360 cpu:               1.4 elap:               0.1
 (Enter /sw/contrib/gaussian/g16/B01/g16/l1110.exe)
 Forming Gx(P) for generalized density number  2 NAtomX=     5.
 Integral derivatives from FoFJK, PRISM(SPDF).
 Do as many integral derivatives as possible in FoFJK.
 G2DrvN: MDV=   16106126844.
 G2DrvN: will do     6 centers at a time, making    1 passes.
 Calling FoFCou, ICntrl=  3107 FMM=F I1Cent=   0 AccDes= 0.00D+00.
 FoFJK:  IHMeth= 1 ICntrl=    3107 DoSepK=F KAlg= 0 I1Cent=           0 FoldK=F
 IRaf=         0 NMat=       1 IRICut=       1 DoRegI=T DoRafI=F ISym2E= 1 IDoP0=0 IntGTp=1.
 FoFCou: FMM=F IPFlag=           0 FMFlag=      100000 FMFlg1=           0
         NFxFlg=           0 DoJE=F BraDBF=F KetDBF=F FulRan=T
         wScrn=  0.000000 ICntrl=      3107 IOpCl=  0 I1Cent=           0 NGrid=           0
         NMat0=    1 NMatS0=      1 NMatT0=    0 NMatD0=    1 NMtDS0=    0 NMtDT0=    0
 Petite list used in FoFCou.
 End of G2Drv F.D. properties file   721 does not exist.
 End of G2Drv F.D. properties file   722 does not exist.
 End of G2Drv F.D. properties file   788 does not exist.
 Leave Link 1110 at Sun Mar  6 19:33:04 2022, MaxMem= 16106127360 cpu:              86.7 elap:               3.1
 (Enter /sw/contrib/gaussian/g16/B01/g16/l1112.exe)
 MP22nd: MDV=   16106127360
 This link is doing NAtomX=     5 total of    18 degrees of freedom.
 Using ON3 I/O method in MakUI.
 Frozen-core window:  NFC=   4 NFV=   0.
 Using Ix for Sx.
 Use MO integrals over full window.
 Using OV2 memory method for fx*t*t/D, MaxI=    16 DoOO2=F NP=  28.
 R2 and R3 integrals will be kept in memory, NReq=   915591705.
 FoFCou: FMM=F IPFlag=           0 FMFlag=           0 FMFlg1=           0
         NFxFlg=           0 DoJE=F BraDBF=F KetDBF=F FulRan=T
         wScrn=  0.000000 ICntrl=       600 IOpCl=  0 I1Cent=           0 NGrid=           0
         NMat0=    1 NMatS0=      1 NMatT0=    0 NMatD0=    1 NMtDS0=    0 NMtDT0=    0
 Symmetry not used in FoFCou.
 DD1Dir will call FoFMem   1 times, MxPair=       272
 NAB=   136 NAA=     0 NBB=     0.
 Symmetry is being used.
 FoFJK:  IHMeth= 1 ICntrl=       0 DoSepK=F KAlg= 0 I1Cent=           0 FoldK=F
 IRaf=         0 NMat=      18 IRICut=      45 DoRegI=T DoRafI=T ISym2E= 2 IDoP0=3 IntGTp=3.
 Discarding MO integrals.
 Leave Link 1112 at Sun Mar  6 19:33:41 2022, MaxMem= 16106127360 cpu:            1007.7 elap:              36.4
 (Enter /sw/contrib/gaussian/g16/B01/g16/l601.exe)
 Copying SCF densities to generalized density rwf, IOpCl= 0 IROHF=0.

 **********************************************************************

            Population analysis using the MP2 Density.

 **********************************************************************

 Orbital symmetries:
       Occupied  (A') (A') (A') (A') (A') (A') (A') (A') (A') (A')
                 (A") (A') (A") (A') (A') (A")
       Virtual   (A') (A") (A') (A') (A") (A') (A') (A') (A") (A')
                 (A") (A') (A') (A') (A") (A') (A') (A") (A') (A')
                 (A') (A') (A') (A') (A") (A') (A') (A") (A') (A')
                 (A') (A") (A") (A') (A') (A') (A") (A') (A") (A')
                 (A") (A") (A') (A') (A") (A') (A') (A") (A') (A')
                 (A') (A") (A') (A') (A") (A') (A") (A') (A") (A')
                 (A') (A') (A") (A') (A') (A') (A") (A") (A') (A')
                 (A") (A') (A") (A") (A') (A') (A") (A') (A') (A')
                 (A") (A') (A') (A") (A') (A") (A") (A') (A') (A')
                 (A') (A') (A") (A") (A') (A') (A") (A") (A') (A')
                 (A") (A') (A") (A') (A") (A') (A') (A') (A") (A')
                 (A") (A') (A') (A') (A") (A') (A') (A') (A") (A')
                 (A") (A") (A') (A') (A") (A") (A') (A") (A') (A')
                 (A') (A') (A") (A') (A') (A") (A") (A') (A') (A')
                 (A") (A") (A') (A') (A') (A") (A') (A') (A') (A")
                 (A') (A') (A') (A") (A") (A') (A") (A') (A') (A")
                 (A') (A") (A') (A") (A") (A') (A') (A") (A") (A")
                 (A') (A") (A") (A') (A') (A") (A') (A') (A') (A")
                 (A') (A') (A') (A') (A') (A') (A') (A') (A') (A')
                 (A')
 The electronic state is 1-A'.
 Alpha  occ. eigenvalues --  -20.71888 -20.68682 -20.66930 -15.82604  -1.64324
 Alpha  occ. eigenvalues --   -1.50525  -1.29381  -0.96023  -0.83325  -0.75854
 Alpha  occ. eigenvalues --   -0.73939  -0.63851  -0.61865  -0.61797  -0.50421
 Alpha  occ. eigenvalues --   -0.49728
 Alpha virt. eigenvalues --    0.03492   0.06058   0.09516   0.10065   0.11973
 Alpha virt. eigenvalues --    0.12251   0.14896   0.15165   0.17760   0.18054
 Alpha virt. eigenvalues --    0.18988   0.21103   0.21669   0.24154   0.24644
 Alpha virt. eigenvalues --    0.26898   0.31165   0.31570   0.33797   0.34468
 Alpha virt. eigenvalues --    0.34731   0.39181   0.44772   0.48818   0.50489
 Alpha virt. eigenvalues --    0.51899   0.54489   0.56135   0.59985   0.62042
 Alpha virt. eigenvalues --    0.63845   0.68905   0.71735   0.72468   0.74227
 Alpha virt. eigenvalues --    0.76228   0.76671   0.79559   0.80539   0.84086
 Alpha virt. eigenvalues --    0.84343   0.85146   0.88517   0.90721   0.92961
 Alpha virt. eigenvalues --    0.94786   0.95371   1.01853   1.03059   1.05780
 Alpha virt. eigenvalues --    1.06518   1.09325   1.14182   1.15609   1.16936
 Alpha virt. eigenvalues --    1.22213   1.22608   1.24658   1.34954   1.36489
 Alpha virt. eigenvalues --    1.37391   1.46769   1.48508   1.50577   1.54028
 Alpha virt. eigenvalues --    1.59416   1.59768   1.60549   1.62659   1.69580
 Alpha virt. eigenvalues --    1.74052   1.80184   1.83063   1.88845   1.89338
 Alpha virt. eigenvalues --    1.92730   1.97861   1.98831   2.05133   2.12609
 Alpha virt. eigenvalues --    2.12865   2.16442   2.18536   2.24233   2.25797
 Alpha virt. eigenvalues --    2.29510   2.34825   2.36301   2.38778   2.40035
 Alpha virt. eigenvalues --    2.43211   2.46836   2.47684   2.52740   2.53558
 Alpha virt. eigenvalues --    2.54901   2.55789   2.61396   2.62801   2.67082
 Alpha virt. eigenvalues --    2.67125   2.75448   2.80941   2.81341   2.84179
 Alpha virt. eigenvalues --    2.91609   2.98524   3.04640   3.04749   3.11714
 Alpha virt. eigenvalues --    3.11833   3.16546   3.21300   3.30798   3.33226
 Alpha virt. eigenvalues --    3.36520   3.47432   3.68168   3.86878   3.92296
 Alpha virt. eigenvalues --    4.18017   4.21838   4.22298   4.26244   4.36661
 Alpha virt. eigenvalues --    4.50221   4.51133   4.55640   4.59742   4.69714
 Alpha virt. eigenvalues --    4.81264   4.90055   4.91348   4.93895   4.99931
 Alpha virt. eigenvalues --    5.00636   5.10830   5.13030   5.18120   5.24876
 Alpha virt. eigenvalues --    5.25831   5.31784   5.33345   5.35143   5.55056
 Alpha virt. eigenvalues --    5.64534   5.70413   5.88761   5.99935   6.26651
 Alpha virt. eigenvalues --    6.29659   6.36111   6.37821   6.59700   6.65315
 Alpha virt. eigenvalues --    6.65794   6.68679   6.72813   6.79949   6.80467
 Alpha virt. eigenvalues --    6.84893   6.96757   7.02059   7.06618   7.08069
 Alpha virt. eigenvalues --    7.13668   7.16709   7.17496   7.20267   7.24536
 Alpha virt. eigenvalues --    7.24787   7.27023   7.34624   7.39035   7.42606
 Alpha virt. eigenvalues --    7.44286   7.46341   7.55640   7.66096   7.66464
 Alpha virt. eigenvalues --    7.79540   7.88160   7.94850   8.05375   8.30250
 Alpha virt. eigenvalues --    8.49670   8.65419  13.60955  14.77797  15.08980
 Alpha virt. eigenvalues --   15.73644
          Condensed to atoms (all electrons):
               1          2          3          4          5
     1  H    0.576126   0.125628   0.024427  -0.000901  -0.005233
     2  O    0.125628   8.388427  -0.232945  -0.000738  -0.007184
     3  O    0.024427  -0.232945   8.373511  -0.167935  -0.035148
     4  N   -0.000901  -0.000738  -0.167935   7.133866  -0.116925
     5  O   -0.005233  -0.007184  -0.035148  -0.116925   8.361978
 Mulliken charges:
               1
     1  H    0.279954
     2  O   -0.273188
     3  O    0.038089
     4  N    0.152633
     5  O   -0.197488
 Sum of Mulliken charges =  -0.00000
 Mulliken charges with hydrogens summed into heavy atoms:
               1
     2  O    0.006766
     3  O    0.038089
     4  N    0.152633
     5  O   -0.197488
 APT charges:
               1
     1  H    0.269497
     2  O   -0.303006
     3  O   -0.308636
     4  N    0.645435
     5  O   -0.303290
 Sum of APT charges =  -0.00000
 APT charges with hydrogens summed into heavy atoms:
               1
     2  O   -0.033509
     3  O   -0.308636
     4  N    0.645435
     5  O   -0.303290
 Electronic spatial extent (au):  <R**2>=            208.2080
 Charge=             -0.0000 electrons
 Dipole moment (field-independent basis, Debye):
    X=              0.0757    Y=             -1.1010    Z=              0.0000  Tot=              1.1036
 Quadrupole moment (field-independent basis, Debye-Ang):
   XX=            -23.3166   YY=            -22.9941   ZZ=            -21.9360
   XY=             -1.9910   XZ=              0.0000   YZ=              0.0000
 Traceless Quadrupole moment (field-independent basis, Debye-Ang):
   XX=             -0.5677   YY=             -0.2452   ZZ=              0.8129
   XY=             -1.9910   XZ=              0.0000   YZ=              0.0000
 Octapole moment (field-independent basis, Debye-Ang**2):
  XXX=              2.6471  YYY=              0.2997  ZZZ=              0.0000  XYY=              2.3634
  XXY=             -2.8555  XXZ=              0.0000  XZZ=             -0.5885  YZZ=             -0.7110
  YYZ=              0.0000  XYZ=              0.0000
 Hexadecapole moment (field-independent basis, Debye-Ang**3):
 XXXX=           -127.8015 YYYY=            -95.0686 ZZZZ=            -18.0461 XXXY=            -22.0634
 XXXZ=              0.0000 YYYX=            -20.2104 YYYZ=              0.0000 ZZZX=              0.0000
 ZZZY=              0.0000 XXYY=            -35.8799 XXZZ=            -24.5082 YYZZ=            -18.6174
 XXYZ=              0.0000 YYXZ=              0.0000 ZZXY=             -6.0577
 N-N= 1.225594913160D+02 E-N=-9.066791020001D+02  KE= 2.801983871381D+02
 Symmetry A'   KE= 2.663453269317D+02
 Symmetry A"   KE= 1.385306020642D+01
  Exact polarizability:  31.068   4.216  29.909   0.000   0.000  17.633
 Approx polarizability:  24.653   0.586  27.652  -0.000  -0.000  15.523
 No NMR shielding tensors so no spin-rotation constants.
 Leave Link  601 at Sun Mar  6 19:33:41 2022, MaxMem= 16106127360 cpu:               5.8 elap:               0.3
 (Enter /sw/contrib/gaussian/g16/B01/g16/l701.exe)
 ... and contract with generalized density number  2.
 Compute integral second derivatives.
 Leave Link  701 at Sun Mar  6 19:33:41 2022, MaxMem= 16106127360 cpu:               5.5 elap:               0.2
 (Enter /sw/contrib/gaussian/g16/B01/g16/l702.exe)
 L702 exits ... SP integral derivatives will be done elsewhere.
 Leave Link  702 at Sun Mar  6 19:33:41 2022, MaxMem= 16106127360 cpu:               1.4 elap:               0.1
 (Enter /sw/contrib/gaussian/g16/B01/g16/l703.exe)
 Integral derivatives from FoFJK, PRISM(SPDF).
 Compute integral second derivatives, UseDBF=F ICtDFT=           0.
 Calling FoFJK, ICntrl=  10100127 FMM=F ISym2X=1 I1Cent= 0 IOpClX= 0 NMat=1 NMatS=1 NMatT=0.
 FoFJK:  IHMeth= 1 ICntrl=10100127 DoSepK=F KAlg= 0 I1Cent=           0 FoldK=F
 IRaf=         0 NMat=       1 IRICut=       1 DoRegI=T DoRafI=F ISym2E= 1 IDoP0=0 IntGTp=1.
 FoFCou: FMM=F IPFlag=           0 FMFlag=      100000 FMFlg1=         800
         NFxFlg=           0 DoJE=F BraDBF=F KetDBF=F FulRan=T
         wScrn=  0.000000 ICntrl=  10100127 IOpCl=  0 I1Cent=           0 NGrid=           0
         NMat0=    1 NMatS0=      1 NMatT0=    0 NMatD0=    1 NMtDS0=    0 NMtDT0=    0
 Petite list used in FoFCou.
 Leave Link  703 at Sun Mar  6 19:33:57 2022, MaxMem= 16106127360 cpu:             446.0 elap:              16.0
 (Enter /sw/contrib/gaussian/g16/B01/g16/l716.exe)
 Dipole        = 2.97978509D-02-4.33184594D-01 0.00000000D+00
 Polarizability= 3.10683263D+01 4.21602877D+00 2.99088382D+01
                 0.00000000D+00 0.00000000D+00 1.76334666D+01
 Full mass-weighted force constant matrix:
 Low frequencies ---  -37.7493   -0.0011   -0.0004    0.0007   17.9217   33.1671
 Low frequencies ---  354.2100  381.3335  520.0526
 Diagonal vibrational polarizability:
        7.3052033      10.0471118      16.1319190
 Harmonic frequencies (cm**-1), IR intensities (KM/Mole), Raman scattering
 activities (A**4/AMU), depolarization ratios for plane and unpolarized
 incident light, reduced masses (AMU), force constants (mDyne/A),
 and normal coordinates:
                      1                      2                      3
                     A"                     A'                     A"
 Frequencies --    354.1783               381.3335               520.0424
 Red. masses --      1.5511                 7.0240                 2.9383
 Frc consts  --      0.1146                 0.6018                 0.4682
 IR Inten    --     63.2894                 7.7375                25.6705
  Atom  AN      X      Y      Z        X      Y      Z        X      Y      Z
     1   1     0.00   0.00   0.98    -0.73  -0.26   0.00     0.00  -0.00   0.93
     2   8     0.00   0.00  -0.11    -0.32  -0.31  -0.00     0.00  -0.00   0.05
     3   8     0.00  -0.00   0.12    -0.07   0.09   0.00    -0.00  -0.00  -0.19
     4   7    -0.00  -0.00  -0.11     0.05   0.09  -0.00     0.00   0.00   0.27
     5   8    -0.00  -0.00   0.03     0.39   0.16   0.00     0.00   0.00  -0.17
                      4                      5                      6
                     A'                     A'                     A'
 Frequencies --    712.6173               835.8022               971.1626
 Red. masses --     13.2672                12.2749                 9.6398
 Frc consts  --      3.9696                 5.0521                 5.3568
 IR Inten    --    219.5480                29.3587                12.8994
  Atom  AN      X      Y      Z        X      Y      Z        X      Y      Z
     1   1    -0.36   0.00   0.00     0.45  -0.15  -0.00    -0.64  -0.01  -0.00
     2   8     0.00  -0.08   0.00     0.53  -0.20   0.00     0.21  -0.17   0.00
     3   8     0.37   0.58  -0.00    -0.38  -0.03   0.00    -0.36   0.40  -0.00
     4   7    -0.42  -0.46   0.00    -0.43  -0.05  -0.00     0.37   0.04   0.00
     5   8     0.01  -0.10  -0.00     0.21   0.28   0.00    -0.13  -0.27  -0.00
                      7                      8                      9
                     A'                     A'                     A'
 Frequencies --   1431.9016              1567.6137              3492.8395
 Red. masses --      1.2931                 6.8736                 1.0639
 Frc consts  --      1.5621                 9.9520                 7.6472
 IR Inten    --     78.7354               151.9921                40.2843
  Atom  AN      X      Y      Z        X      Y      Z        X      Y      Z
     1   1     0.97  -0.20  -0.00    -0.74   0.16   0.00     0.14   0.99   0.00
     2   8    -0.07  -0.05  -0.00     0.02   0.02  -0.00    -0.01  -0.06  -0.00
     3   8    -0.03   0.06   0.00    -0.04  -0.06   0.00     0.00  -0.00   0.00
     4   7     0.06  -0.05  -0.00     0.25  -0.42   0.00    -0.00   0.00   0.00
     5   8    -0.02   0.04   0.00    -0.16   0.39  -0.00     0.00  -0.00  -0.00

 -------------------
 - Thermochemistry -
 -------------------
 Temperature   298.150 Kelvin.  Pressure   1.00000 Atm.
 Atom     1 has atomic number  1 and mass   1.00783
 Atom     2 has atomic number  8 and mass  15.99491
 Atom     3 has atomic number  8 and mass  15.99491
 Atom     4 has atomic number  7 and mass  14.00307
 Atom     5 has atomic number  8 and mass  15.99491
 Molecular mass:    62.99564 amu.
 Principal axes and moments of inertia in atomic units:
                           1         2         3
     Eigenvalues --    83.96340 225.08937 309.05277
           X            0.79743  -0.60341   0.00000
           Y            0.60341   0.79743   0.00000
           Z            0.00000   0.00000   1.00000
 This molecule is an asymmetric top.
 Rotational symmetry number  1.
 Rotational temperatures (Kelvin)      1.03157     0.38480     0.28026
 Rotational constants (GHZ):          21.49438     8.01789     5.83959
 Zero-point vibrational energy      61413.2 (Joules/Mol)
                                   14.67812 (Kcal/Mol)
 Warning -- explicit consideration of   3 degrees of freedom as
           vibrations may cause significant error
 Vibrational temperatures:    509.58   548.65   748.22  1025.30  1202.53
          (Kelvin)           1397.29  2060.19  2255.45  5025.42
 
 Zero-point correction=                           0.023391 (Hartree/Particle)
 Thermal correction to Energy=                    0.027346
 Thermal correction to Enthalpy=                  0.028290
 Thermal correction to Gibbs Free Energy=        -0.002602
 Sum of electronic and zero-point Energies=           -280.431808
 Sum of electronic and thermal Energies=              -280.427853
 Sum of electronic and thermal Enthalpies=            -280.426909
 Sum of electronic and thermal Free Energies=         -280.457801
 
                     E (Thermal)             CV                S
                      KCal/Mol        Cal/Mol-Kelvin    Cal/Mol-Kelvin
 Total                   17.160             12.206             65.017
 Electronic               0.000              0.000              0.000
 Translational            0.889              2.981             38.341
 Rotational               0.889              2.981             23.284
 Vibrational             15.382              6.245              3.392
 Vibration     1          0.730              1.567              1.148
 Vibration     2          0.751              1.510              1.034
 Vibration     3          0.875              1.206              0.610
                       Q            Log10(Q)             Ln(Q)
 Total Bot       0.157265D+02          1.196632          2.755348
 Total V=0       0.903163D+12         11.955766         27.529169
 Vib (Bot)       0.292502D-10        -10.533872        -24.255136
 Vib (Bot)    1  0.519504D+00         -0.284411         -0.654881
 Vib (Bot)    2  0.473697D+00         -0.324499         -0.747187
 Vib (Bot)    3  0.310373D+00         -0.508116         -1.169979
 Vib (V=0)       0.167982D+01          0.225262          0.518685
 Vib (V=0)    1  0.122103D+01          0.086726          0.199695
 Vib (V=0)    2  0.118876D+01          0.075094          0.172910
 Vib (V=0)    3  0.108850D+01          0.036828          0.084800
 Electronic      0.100000D+01          0.000000          0.000000
 Translational   0.196526D+08          7.293420         16.793719
 Rotational      0.273580D+05          4.437084         10.216764
 
                                                                title
                                                             IR Spectrum
 
      3                                                                     1   1                                                    
      4                                                                     5   4                9    8    7      5    33            
      9                                                                     6   3                7    3    1      2    85            
      3                                                                     8   2                1    6    3      0    14            
 
      X                                                                     X   X                X    X    X      X    XX            
      X                                                                     X   X                     X    X      X     X            
      X                                                                     X   X                     X    X            X            
      X                                                                     X   X                          X            X            
                                                                            X   X                          X            X            
                                                                            X   X                          X            X            
                                                                            X   X                          X                         
                                                                            X                              X                         
                                                                            X                              X                         
                                                                            X                              X                         
                                                                            X                              X                         
                                                                            X                              X                         
                                                                            X                              X                         
                                                                            X                              X                         
                                                                                                           X                         
                                                                                                           X                         
                                                                                                           X                         
                                                                                                           X                         
                                                                                                           X                         
                                                                                                           X                         
 
 ***** Axes restored to original set *****
 -------------------------------------------------------------------
 Center     Atomic                   Forces (Hartrees/Bohr)
 Number     Number              X              Y              Z
 -------------------------------------------------------------------
      1        1          -0.000053180   -0.000000000    0.000131207
      2        8           0.000625842   -0.000000000   -0.002480935
      3        8           0.001969725   -0.000000000    0.002421139
      4        7          -0.002135069   -0.000000000   -0.000117030
      5        8          -0.000407317   -0.000000000    0.000045618
 -------------------------------------------------------------------
 Cartesian Forces:  Max     0.002480935 RMS     0.001184587
 -----------------------------------------------------------------------------------------------
                       Internal Coordinate Forces (Hartree/Bohr or radian)
  Cent   Atom   N1       Length/X         N2         Alpha/Y        N3         Beta/Z          J
 -----------------------------------------------------------------------------------------------
      1  H 
      2  O        1  -0.000131(     1)
      3  O        2  -0.000129(     2)      1   0.000099(     5)
      4  N        3  -0.001382(     3)      2  -0.006412(     6)      1   0.000000(     8)     0
      5  O        4   0.000172(     4)      3  -0.000840(     7)      2   0.000000(     9)     0
 -----------------------------------------------------------------------------------------------
 Internal  Forces:  Max     0.006412471 RMS     0.002206305
 Force constants in Cartesian coordinates: 
                1             2             3             4             5 
      1  0.714747D-01
      2  0.000000D+00  0.604151D-02
      3  0.236736D-01  0.000000D+00  0.438006D+00
      4 -0.517942D-01  0.000000D+00 -0.478030D-02  0.279591D+00
      5  0.000000D+00 -0.255119D-02  0.000000D+00  0.000000D+00  0.123138D-01
      6  0.328435D-01  0.000000D+00 -0.422336D+00 -0.975596D-02  0.000000D+00
      7 -0.252360D-01  0.000000D+00 -0.154630D-01 -0.171526D+00  0.000000D+00
      8  0.000000D+00 -0.404331D-02  0.000000D+00  0.000000D+00 -0.182859D-01
      9 -0.448577D-01  0.000000D+00 -0.192734D-01  0.954989D-02  0.000000D+00
     10 -0.484700D-02  0.000000D+00  0.625953D-02 -0.827220D-01  0.000000D+00
     11  0.000000D+00  0.782020D-02  0.000000D+00  0.000000D+00  0.193453D-01
     12 -0.183350D-01  0.000000D+00  0.111946D-01  0.891517D-02  0.000000D+00
     13  0.104026D-01  0.000000D+00 -0.968984D-02  0.264511D-01  0.000000D+00
     14  0.000000D+00 -0.726721D-02  0.000000D+00  0.000000D+00 -0.108220D-01
     15  0.667560D-02  0.000000D+00 -0.759092D-02 -0.392880D-02  0.000000D+00
                6             7             8             9            10 
      6  0.522190D+00
      7 -0.912051D-01  0.303827D+00
      8  0.000000D+00  0.000000D+00  0.397560D-01
      9 -0.979019D-01  0.816051D-01  0.000000D+00  0.319821D+00
     10  0.397416D-01 -0.143764D+00  0.000000D+00 -0.376881D-01  0.544795D+00
     11  0.000000D+00  0.000000D+00 -0.477132D-01  0.000000D+00  0.000000D+00
     12 -0.802270D-02  0.138143D-01  0.000000D+00 -0.273749D-01  0.244445D+00
     13  0.283760D-01  0.366990D-01  0.000000D+00 -0.860920D-02 -0.313462D+00
     14  0.000000D+00  0.000000D+00  0.302864D-01  0.000000D+00  0.000000D+00
     15  0.607059D-02  0.112487D-01  0.000000D+00 -0.175270D+00 -0.252758D+00
               11            12            13            14            15 
     11  0.579984D-01
     12  0.000000D+00  0.455845D+00
     13  0.000000D+00 -0.248839D+00  0.239909D+00
     14 -0.374507D-01  0.000000D+00  0.000000D+00  0.252535D-01
     15  0.000000D+00 -0.431642D+00  0.238762D+00  0.000000D+00  0.608433D+00
 Force constants in internal coordinates: 
                1             2             3             4             5 
      1  0.438006D+00
      2  0.214608D-01  0.258213D+00
      3  0.491325D-02  0.163349D-01  0.204284D+00
      4 -0.115077D-01  0.225819D-01  0.148720D+00  0.721249D+00
      5  0.440293D-01  0.554405D-01 -0.237498D-01  0.206555D-01  0.247585D+00
      6  0.119087D-01  0.169124D-01  0.813782D-01  0.915350D-02 -0.130468D-01
      7  0.986453D-02 -0.738400D-01  0.114759D+00  0.117790D+00 -0.229240D-01
      8  0.000000D+00  0.000000D+00  0.000000D+00  0.000000D+00  0.000000D+00
      9  0.000000D+00  0.000000D+00  0.000000D+00  0.000000D+00  0.000000D+00
                6             7             8             9 
      6  0.487700D+00
      7  0.436264D-01  0.648277D+00
      8  0.000000D+00  0.000000D+00  0.199808D-01
      9  0.000000D+00  0.000000D+00  0.273610D-01  0.107516D+00
 Leave Link  716 at Sun Mar  6 19:33:57 2022, MaxMem= 16106127360 cpu:               1.3 elap:               0.1
 (Enter /sw/contrib/gaussian/g16/B01/g16/l103.exe)

 GradGradGradGradGradGradGradGradGradGradGradGradGradGradGradGradGradGrad
 Berny optimization.
 Search for a local minimum.
 Step number   1 out of a maximum of    2
 All quantities printed in internal units (Hartrees-Bohrs-Radians)
 Second derivative matrix not updated -- analytic derivatives used.
 The second derivative matrix:
                          r1        r2        r3        r4        a1
           r1           0.43801
           r2           0.02146   0.25821
           r3           0.00491   0.01633   0.20428
           r4          -0.01151   0.02258   0.14872   0.72125
           a1           0.04403   0.05544  -0.02375   0.02066   0.24758
           a2           0.01191   0.01691   0.08138   0.00915  -0.01305
           a3           0.00986  -0.07384   0.11476   0.11779  -0.02292
           d1           0.00000   0.00000   0.00000   0.00000   0.00000
           d2           0.00000   0.00000   0.00000   0.00000   0.00000
                          a2        a3        d1        d2
           a2           0.48770
           a3           0.04363   0.64828
           d1           0.00000   0.00000   0.01998
           d2           0.00000   0.00000   0.02736   0.10752
 ITU=  0
     Eigenvalues ---    0.01213   0.11536   0.12512   0.20236   0.27371
     Eigenvalues ---    0.44921   0.49445   0.59009   0.87037
 Angle between quadratic step and forces=   9.18 degrees.
 Linear search not attempted -- first point.
 Variable       Old X    -DE/DX   Delta X   Delta X   Delta X     New X
                                 (Linear)    (Quad)   (Total)
    r1        1.86209  -0.00013   0.00000   0.00015   0.00015   1.86224
    r2        2.69614  -0.00013   0.00000   0.00051   0.00051   2.69665
    r3        2.60992  -0.00138   0.00000  -0.00239  -0.00239   2.60753
    r4        2.25782   0.00017   0.00000   0.00092   0.00092   2.25875
    a1        1.75642   0.00010   0.00000  -0.00074  -0.00074   1.75568
    a2        1.98785  -0.00641   0.00000  -0.01279  -0.01279   1.97505
    a3        1.99550  -0.00084   0.00000  -0.00015  -0.00015   1.99535
    d1        0.00000   0.00000   0.00000   0.00000   0.00000   0.00000
    d2        0.00000   0.00000   0.00000   0.00000   0.00000   0.00000
         Item               Value     Threshold  Converged?
 Maximum Force            0.006412     0.000450     NO 
 RMS     Force            0.002206     0.000300     NO 
 Maximum Displacement     0.012795     0.001800     NO 
 RMS     Displacement     0.004360     0.001200     NO 
 Predicted change in Energy=-4.273742D-05
                       ----------------------------
                       ! Non-Optimized Parameters !
                       ! (Angstroms and Degrees)  !
 ----------------------                            ----------------------
 !      Name          Value   Derivative information (Atomic Units)     !
 ------------------------------------------------------------------------
 !       r1          0.9855   -DE/DX =   -0.0001                        !
 !       r2          1.427    -DE/DX =   -0.0001                        !
 !       r3          1.3798   -DE/DX =   -0.0014                        !
 !       r4          1.1953   -DE/DX =    0.0002                        !
 !       a1        100.5933   -DE/DX =    0.0001                        !
 !       a2        113.1622   -DE/DX =   -0.0064                        !
 !       a3        114.3253   -DE/DX =   -0.0008                        !
 !       d1          0.0      -DE/DX =    0.0                           !
 !       d2          0.0      -DE/DX =    0.0                           !
 ------------------------------------------------------------------------
 GradGradGradGradGradGradGradGradGradGradGradGradGradGradGradGradGradGrad

 Leave Link  103 at Sun Mar  6 19:33:58 2022, MaxMem= 16106127360 cpu:               0.7 elap:               0.0
 (Enter /sw/contrib/gaussian/g16/B01/g16/l9999.exe)

 ----------------------------------------------------------------------

 Electric dipole moment (input orientation):
 (Debye = 10**-18 statcoulomb cm , SI units = C m)
                  (au)            (Debye)         (10**-30 SI)
   Tot        0.434208D+00      0.110365D+01      0.368137D+01
   x         -0.115557D+00     -0.293718D+00     -0.979737D+00
   y          0.000000D+00      0.000000D+00      0.000000D+00
   z         -0.418549D+00     -0.106385D+01     -0.354861D+01

 Dipole polarizability, Alpha (input orientation).
 (esu units = cm**3 , SI units = C**2 m**2 J**-1)
 Alpha(0;0):
               (au)            (10**-24 esu)      (10**-40 SI)
   iso        0.262035D+02      0.388296D+01      0.432038D+01
   aniso      0.148185D+02      0.219587D+01      0.244324D+01
   xx         0.293750D+02      0.435293D+01      0.484328D+01
   yx         0.000000D+00      0.000000D+00      0.000000D+00
   yy         0.176335D+02      0.261301D+01      0.290737D+01
   zx        -0.410743D+01     -0.608658D+00     -0.677223D+00
   zy         0.000000D+00      0.000000D+00      0.000000D+00
   zz         0.316022D+02      0.468296D+01      0.521049D+01

 ----------------------------------------------------------------------

 Dipole orientation:
     1         -0.00000000          0.00000000          0.00000000
     8         -0.49556554          0.00000000         -1.79493770
     8          1.92626800         -0.00000000         -2.97980120
     7          3.92455814         -0.00000000         -1.30096416
     8          3.31355482          0.00000000          0.87261342

 Electric dipole moment (dipole orientation):
 (Debye = 10**-18 statcoulomb cm , SI units = C m)
                  (au)            (Debye)         (10**-30 SI)
   Tot        0.434208D+00      0.110365D+01      0.368137D+01
   x          0.000000D+00      0.000000D+00      0.000000D+00
   y          0.000000D+00      0.000000D+00      0.000000D+00
   z          0.434208D+00      0.110365D+01      0.368137D+01

 Dipole polarizability, Alpha (dipole orientation).
 (esu units = cm**3 , SI units = C**2 m**2 J**-1)
 Alpha(0;0):
               (au)            (10**-24 esu)      (10**-40 SI)
   iso        0.262035D+02      0.388296D+01      0.432038D+01
   aniso      0.148185D+02      0.219587D+01      0.244324D+01
   xx         0.316402D+02      0.468859D+01      0.521676D+01
   yx         0.000000D+00      0.000000D+00      0.000000D+00
   yy         0.176335D+02      0.261301D+01      0.290737D+01
   zx         0.409693D+01      0.607103D+00      0.675493D+00
   zy         0.000000D+00      0.000000D+00      0.000000D+00
   zz         0.293370D+02      0.434730D+01      0.483702D+01

 ----------------------------------------------------------------------
 1\1\GINC-N2174\Freq\RMP2-FC\Aug-CC-pVTZ\H1N1O3\CGAVINH\06-Mar-2022\1\\
 #p freq mp2/aug-cc-pvtz density=current\\title\\0,1\H\O,1,r1\O,2,r2,1,
 a1\N,3,r3,2,a2,1,d1,0\O,4,r4,3,a3,2,d2,0\\r1=0.98537664\r2=1.42673666\
 r3=1.38110764\r4=1.19478846\a1=100.6355057\a2=113.89530869\a3=114.3339
 2022\d1=0.\d2=0.\\Version=ES64L-G16RevB.01\State=1-A'\HF=-279.5065365\
 MP2=-280.455199\RMSD=4.221e-09\RMSF=1.185e-03\ZeroPoint=0.0233911\Ther
 mal=0.0273457\Dipole=-0.1155575,0.,-0.418549\DipoleDeriv=0.3148715,0.,
 0.0407066,0.,0.2993284,0.,-0.0195152,0.,0.1942918,-0.5348914,0.,0.2798
 225,0.,-0.253217,0.,-0.1105599,0.,-0.1209102,-0.0014302,0.,0.3466043,0
 .,-0.0133232,0.,0.4518886,0.,-0.9111537,0.209048,0.,-0.1585007,0.,0.01
 44414,0.,-0.6875506,0.,1.7128156,0.0124021,0.,-0.5086328,0.,-0.0472296
 ,0.,0.365737,0.,-0.8750435\Polar=29.3750096,0.,17.6334666,-4.1074272,0
 .,31.6021548\Quadrupole=0.1658013,0.6043659,-0.7701673,0.,1.4094622,0.
 \PG=CS [SG(H1N1O3)]\NImag=0\\0.07147467,0.,0.00604151,0.02367365,0.,0.
 43800574,-0.05179422,0.,-0.00478030,0.27959118,0.,-0.00255119,0.,0.,0.
 01231381,0.03284346,0.,-0.42233605,-0.00975596,0.,0.52219005,-0.025236
 00,0.,-0.01546303,-0.17152600,0.,-0.09120513,0.30382694,0.,-0.00404331
 ,0.,0.,-0.01828592,0.,0.,0.03975601,-0.04485770,0.,-0.01927336,0.00954
 989,0.,-0.09790189,0.08160512,0.,0.31982053,-0.00484700,0.,0.00625953,
 -0.08272201,0.,0.03974160,-0.14376389,0.,-0.03768811,0.54479457,0.,0.0
 0782020,0.,0.,0.01934530,0.,0.,-0.04771317,0.,0.,0.05799840,-0.0183350
 1,0.,0.01119459,0.00891517,0.,-0.00802270,0.01381434,0.,-0.02737493,0.
 24444477,0.,0.45584544,0.01040255,0.,-0.00968984,0.02645105,0.,0.02837
 603,0.03669896,0.,-0.00860920,-0.31346167,0.,-0.24883927,0.23990911,0.
 ,-0.00726721,0.,0.,-0.01082199,0.,0.,0.03028639,0.,0.,-0.03745073,0.,0
 .,0.02525354,0.00667560,0.,-0.00759092,-0.00392880,0.,0.00607059,0.011
 24871,0.,-0.17527035,-0.25275779,0.,-0.43164240,0.23876228,0.,0.608433
 08\\0.00005318,0.,-0.00013121,-0.00062584,0.,0.00248093,-0.00196972,0.
 ,-0.00242114,0.00213507,0.,0.00011703,0.00040732,0.,-0.00004562\\\@


 I am not a vegetarian because I love animals;
 I am a vegetarian because I hate plants.
                               -- A. Whitney Brown
 Job cpu time:       0 days  2 hours  1 minutes 58.6 seconds.
 Elapsed time:       0 days  0 hours  4 minutes 24.7 seconds.
 File lengths (MBytes):  RWF=   7239 Int=      0 D2E=      0 Chk=      8 Scr=      1
 Normal termination of Gaussian 16 at Sun Mar  6 19:33:59 2022.
