title                                                                   
Freq      RMP2-FC                                                     Aug-CC-pVTZ         
Number of atoms                            I                5
Info1-9                                    I   N=           9
          33          24           0           0           0         100
           6           2           1
Full Title                                 C   N=           1
title       
Route                                      C   N=           4
#p freq mp2/aug-cc-pvtz density=current         
Charge                                     I                0
Multiplicity                               I                1
Number of electrons                        I               32
Number of alpha electrons                  I               16
Number of beta electrons                   I               16
Number of basis functions                  I              207
Number of independent functions            I              207
Number of point charges in /Mol/           I                0
Number of translation vectors              I                0
Atomic numbers                             I   N=           5
           1           8           8           7           8
Nuclear charges                            R   N=           5
  1.00000000E+00  8.00000000E+00  8.00000000E+00  7.00000000E+00  8.00000000E+00
Current cartesian coordinates              R   N=          15
  2.03173926E+00 -1.15689209E+00  0.00000000E+00  2.46271020E+00  6.54640575E-01
  0.00000000E+00  9.66471223E-17  1.75201822E+00  0.00000000E+00 -1.86306861E+00
 -7.57215446E-02  0.00000000E+00 -1.08649257E+00 -2.19579093E+00  0.00000000E+00
Number of symbols in /Mol/                 I                0
Force Field                                I                0
Atom Types                                 C   N=           5
                                                            
Int Atom Types                             I   N=           5
           0           0           0           0           0
MM charges                                 R   N=           5
  0.00000000E+00  0.00000000E+00  0.00000000E+00  0.00000000E+00  0.00000000E+00
Integer atomic weights                     I   N=           5
           1          16          16          14          16
Real atomic weights                        R   N=           5
  1.00782504E+00  1.59949146E+01  1.59949146E+01  1.40030740E+01  1.59949146E+01
Atom fragment info                         I   N=           5
           0           0           0           0           0
Atom residue num                           I   N=           5
           0           0           0           0           0
Nuclear spins                              I   N=           5
           1           0           0           2           0
Nuclear ZEff                               R   N=           5
 -1.00000000E+00 -5.60000000E+00 -5.60000000E+00 -4.55000000E+00 -5.60000000E+00
Nuclear ZNuc                               R   N=           5
  1.00000000E+00  8.00000000E+00  8.00000000E+00  7.00000000E+00  8.00000000E+00
Nuclear QMom                               R   N=           5
  0.00000000E+00  0.00000000E+00  0.00000000E+00  2.04400000E+00  0.00000000E+00
Nuclear GFac                               R   N=           5
  2.79284600E+00  0.00000000E+00  0.00000000E+00  4.03761000E-01  0.00000000E+00
MicOpt                                     I   N=           5
          -1          -1          -1          -1          -1
Number of residues                         I                0
Number of secondary structures             I                0
SymInf integers                            I   N=          26
           1           2           1           1           1           1
           1          -1           0           0           0           0
           0           0           0           0           0           0
           0           0           0           0           0           0
           0           0
RotTr to input orientation                 R   N=          12
 -9.72848110E-01  0.00000000E+00  2.31444495E-01  2.31444495E-01  0.00000000E+00
  9.72848110E-01  0.00000000E+00  1.00000000E+00  0.00000000E+00  2.24433000E+00
  0.00000000E+00  6.55245415E-01
Number of contracted shells                I               65
Number of primitive shells                 I              119
Pure/Cartesian d shells                    I                0
Pure/Cartesian f shells                    I                0
Highest angular momentum                   I                3
Largest degree of contraction              I                7
Shell types                                I   N=          65
           0           0           0           0           1           1
           1          -2          -2           0           0           0
           0           0           1           1           1           1
          -2          -2          -2          -3          -3           0
           0           0           0           0           1           1
           1           1          -2          -2          -2          -3
          -3           0           0           0           0           0
           1           1           1           1          -2          -2
          -2          -3          -3           0           0           0
           0           0           1           1           1           1
          -2          -2          -2          -3          -3
Number of primitives per shell             I   N=          65
           3           1           1           1           1           1
           1           1           1           7           6           1
           1           1           3           1           1           1
           1           1           1           1           1           7
           6           1           1           1           3           1
           1           1           1           1           1           1
           1           7           6           1           1           1
           3           1           1           1           1           1
           1           1           1           7           6           1
           1           1           3           1           1           1
           1           1           1           1           1
Shell to atom map                          I   N=          65
           1           1           1           1           1           1
           1           1           1           2           2           2
           2           2           2           2           2           2
           2           2           2           2           2           3
           3           3           3           3           3           3
           3           3           3           3           3           3
           3           4           4           4           4           4
           4           4           4           4           4           4
           4           4           4           5           5           5
           5           5           5           5           5           5
           5           5           5           5           5
Primitive exponents                        R   N=         119
  3.38700000E+01  5.09500000E+00  1.15900000E+00  3.25800000E-01  1.02700000E-01
  2.52600000E-02  1.40700000E+00  3.88000000E-01  1.02000000E-01  1.05700000E+00
  2.47000000E-01  1.53300000E+04  2.29900000E+03  5.22400000E+02  1.47300000E+02
  4.75500000E+01  1.67600000E+01  6.20700000E+00  5.22400000E+02  1.47300000E+02
  4.75500000E+01  1.67600000E+01  6.20700000E+00  6.88200000E-01  1.75200000E+00
  2.38400000E-01  7.37600000E-02  3.44600000E+01  7.74900000E+00  2.28000000E+00
  7.15600000E-01  2.14000000E-01  5.97400000E-02  2.31400000E+00  6.45000000E-01
  2.14000000E-01  1.42800000E+00  5.00000000E-01  1.53300000E+04  2.29900000E+03
  5.22400000E+02  1.47300000E+02  4.75500000E+01  1.67600000E+01  6.20700000E+00
  5.22400000E+02  1.47300000E+02  4.75500000E+01  1.67600000E+01  6.20700000E+00
  6.88200000E-01  1.75200000E+00  2.38400000E-01  7.37600000E-02  3.44600000E+01
  7.74900000E+00  2.28000000E+00  7.15600000E-01  2.14000000E-01  5.97400000E-02
  2.31400000E+00  6.45000000E-01  2.14000000E-01  1.42800000E+00  5.00000000E-01
  1.14200000E+04  1.71200000E+03  3.89300000E+02  1.10000000E+02  3.55700000E+01
  1.25400000E+01  4.64400000E+00  3.89300000E+02  1.10000000E+02  3.55700000E+01
  1.25400000E+01  4.64400000E+00  5.11800000E-01  1.29300000E+00  1.78700000E-01
  5.76000000E-02  2.66300000E+01  5.94800000E+00  1.74200000E+00  5.55000000E-01
  1.72500000E-01  4.91000000E-02  1.65400000E+00  4.69000000E-01  1.51000000E-01
  1.09300000E+00  3.64000000E-01  1.53300000E+04  2.29900000E+03  5.22400000E+02
  1.47300000E+02  4.75500000E+01  1.67600000E+01  6.20700000E+00  5.22400000E+02
  1.47300000E+02  4.75500000E+01  1.67600000E+01  6.20700000E+00  6.88200000E-01
  1.75200000E+00  2.38400000E-01  7.37600000E-02  3.44600000E+01  7.74900000E+00
  2.28000000E+00  7.15600000E-01  2.14000000E-01  5.97400000E-02  2.31400000E+00
  6.45000000E-01  2.14000000E-01  1.42800000E+00  5.00000000E-01
Contraction coefficients                   R   N=         119
  2.54948632E-02  1.90362766E-01  8.52162022E-01  1.00000000E+00  1.00000000E+00
  1.00000000E+00  1.00000000E+00  1.00000000E+00  1.00000000E+00  1.00000000E+00
  1.00000000E+00  5.19808943E-04  4.02025621E-03  2.07128267E-02  8.10105536E-02
  2.35962985E-01  4.42653446E-01  3.57064423E-01 -4.42115008E-05 -1.22591041E-03
 -1.05517725E-02 -6.74452633E-02 -1.71198607E-01  1.07329856E+00  1.00000000E+00
  1.00000000E+00  1.00000000E+00  4.11634896E-02  2.57762836E-01  8.02419274E-01
  1.00000000E+00  1.00000000E+00  1.00000000E+00  1.00000000E+00  1.00000000E+00
  1.00000000E+00  1.00000000E+00  1.00000000E+00  5.19808943E-04  4.02025621E-03
  2.07128267E-02  8.10105536E-02  2.35962985E-01  4.42653446E-01  3.57064423E-01
 -4.42115008E-05 -1.22591041E-03 -1.05517725E-02 -6.74452633E-02 -1.71198607E-01
  1.07329856E+00  1.00000000E+00  1.00000000E+00  1.00000000E+00  4.11634896E-02
  2.57762836E-01  8.02419274E-01  1.00000000E+00  1.00000000E+00  1.00000000E+00
  1.00000000E+00  1.00000000E+00  1.00000000E+00  1.00000000E+00  1.00000000E+00
  5.34563860E-04  4.13435660E-03  2.12335358E-02  8.25006224E-02  2.38138871E-01
  4.42551547E-01  3.53757422E-01 -4.89867350E-05 -1.19527323E-03 -1.03490714E-02
 -6.48680190E-02 -1.71552477E-01  1.07289568E+00  1.00000000E+00  1.00000000E+00
  1.00000000E+00  3.98072123E-02  2.49002660E-01  8.10479727E-01  1.00000000E+00
  1.00000000E+00  1.00000000E+00  1.00000000E+00  1.00000000E+00  1.00000000E+00
  1.00000000E+00  1.00000000E+00  5.19808943E-04  4.02025621E-03  2.07128267E-02
  8.10105536E-02  2.35962985E-01  4.42653446E-01  3.57064423E-01 -4.42115008E-05
 -1.22591041E-03 -1.05517725E-02 -6.74452633E-02 -1.71198607E-01  1.07329856E+00
  1.00000000E+00  1.00000000E+00  1.00000000E+00  4.11634896E-02  2.57762836E-01
  8.02419274E-01  1.00000000E+00  1.00000000E+00  1.00000000E+00  1.00000000E+00
  1.00000000E+00  1.00000000E+00  1.00000000E+00  1.00000000E+00
Coordinates of each shell                  R   N=         195
  2.03173926E+00 -1.15689209E+00  0.00000000E+00  2.03173926E+00 -1.15689209E+00
  0.00000000E+00  2.03173926E+00 -1.15689209E+00  0.00000000E+00  2.03173926E+00
 -1.15689209E+00  0.00000000E+00  2.03173926E+00 -1.15689209E+00  0.00000000E+00
  2.03173926E+00 -1.15689209E+00  0.00000000E+00  2.03173926E+00 -1.15689209E+00
  0.00000000E+00  2.03173926E+00 -1.15689209E+00  0.00000000E+00  2.03173926E+00
 -1.15689209E+00  0.00000000E+00  2.46271020E+00  6.54640575E-01  0.00000000E+00
  2.46271020E+00  6.54640575E-01  0.00000000E+00  2.46271020E+00  6.54640575E-01
  0.00000000E+00  2.46271020E+00  6.54640575E-01  0.00000000E+00  2.46271020E+00
  6.54640575E-01  0.00000000E+00  2.46271020E+00  6.54640575E-01  0.00000000E+00
  2.46271020E+00  6.54640575E-01  0.00000000E+00  2.46271020E+00  6.54640575E-01
  0.00000000E+00  2.46271020E+00  6.54640575E-01  0.00000000E+00  2.46271020E+00
  6.54640575E-01  0.00000000E+00  2.46271020E+00  6.54640575E-01  0.00000000E+00
  2.46271020E+00  6.54640575E-01  0.00000000E+00  2.46271020E+00  6.54640575E-01
  0.00000000E+00  2.46271020E+00  6.54640575E-01  0.00000000E+00  4.66806767E-17
  1.75201822E+00  0.00000000E+00  4.66806767E-17  1.75201822E+00  0.00000000E+00
  4.66806767E-17  1.75201822E+00  0.00000000E+00  4.66806767E-17  1.75201822E+00
  0.00000000E+00  4.66806767E-17  1.75201822E+00  0.00000000E+00  4.66806767E-17
  1.75201822E+00  0.00000000E+00  4.66806767E-17  1.75201822E+00  0.00000000E+00
  4.66806767E-17  1.75201822E+00  0.00000000E+00  4.66806767E-17  1.75201822E+00
  0.00000000E+00  4.66806767E-17  1.75201822E+00  0.00000000E+00  4.66806767E-17
  1.75201822E+00  0.00000000E+00  4.66806767E-17  1.75201822E+00  0.00000000E+00
  4.66806767E-17  1.75201822E+00  0.00000000E+00  4.66806767E-17  1.75201822E+00
  0.00000000E+00 -1.86306861E+00 -7.57215446E-02  0.00000000E+00 -1.86306861E+00
 -7.57215446E-02  0.00000000E+00 -1.86306861E+00 -7.57215446E-02  0.00000000E+00
 -1.86306861E+00 -7.57215446E-02  0.00000000E+00 -1.86306861E+00 -7.57215446E-02
  0.00000000E+00 -1.86306861E+00 -7.57215446E-02  0.00000000E+00 -1.86306861E+00
 -7.57215446E-02  0.00000000E+00 -1.86306861E+00 -7.57215446E-02  0.00000000E+00
 -1.86306861E+00 -7.57215446E-02  0.00000000E+00 -1.86306861E+00 -7.57215446E-02
  0.00000000E+00 -1.86306861E+00 -7.57215446E-02  0.00000000E+00 -1.86306861E+00
 -7.57215446E-02  0.00000000E+00 -1.86306861E+00 -7.57215446E-02  0.00000000E+00
 -1.86306861E+00 -7.57215446E-02  0.00000000E+00 -1.08649257E+00 -2.19579093E+00
  0.00000000E+00 -1.08649257E+00 -2.19579093E+00  0.00000000E+00 -1.08649257E+00
 -2.19579093E+00  0.00000000E+00 -1.08649257E+00 -2.19579093E+00  0.00000000E+00
 -1.08649257E+00 -2.19579093E+00  0.00000000E+00 -1.08649257E+00 -2.19579093E+00
  0.00000000E+00 -1.08649257E+00 -2.19579093E+00  0.00000000E+00 -1.08649257E+00
 -2.19579093E+00  0.00000000E+00 -1.08649257E+00 -2.19579093E+00  0.00000000E+00
 -1.08649257E+00 -2.19579093E+00  0.00000000E+00 -1.08649257E+00 -2.19579093E+00
  0.00000000E+00 -1.08649257E+00 -2.19579093E+00  0.00000000E+00 -1.08649257E+00
 -2.19579093E+00  0.00000000E+00 -1.08649257E+00 -2.19579093E+00  0.00000000E+00
Num ILSW                                   I              100
ILSW                                       I   N=         100
           0           0           0           0           2           0
           0           0           0           0           0          -1
           5           0           0           0           2           0
           0           0           0           0           1           0
           1           0           0           0           0           0
           0           0      100000           0          -1           0
           0           0           0           0           0           0
           0           0           0           1           1           0
           0 -2000000000           1           0           0           0
           0           0           4          52           0           0
           0           0           0           0           0           0
           0           0           0           5           4           1
           0           0           0           0           0           0
           0           0           0           0           0           0
           0           0           0           0           0           0
           0           0           0           0           0           0
           0           0           0           0
Num RLSW                                   I               52
RLSW                                       R   N=          52
  1.00000000E+00  1.00000000E+00  1.00000000E+00  1.00000000E+00  1.00000000E+00
  0.00000000E+00  0.00000000E+00  1.00000000E+00  0.00000000E+00  0.00000000E+00
  0.00000000E+00  0.00000000E+00  1.00000000E+00  0.00000000E+00  0.00000000E+00
  0.00000000E+00  0.00000000E+00  1.00000000E+00  0.00000000E+00  0.00000000E+00
  0.00000000E+00  0.00000000E+00  1.00000000E+00  0.00000000E+00  0.00000000E+00
  0.00000000E+00  0.00000000E+00  1.00000000E+00  0.00000000E+00  0.00000000E+00
  0.00000000E+00  0.00000000E+00  1.00000000E+00  0.00000000E+00  0.00000000E+00
  0.00000000E+00  0.00000000E+00  0.00000000E+00  1.00000000E+00  1.00000000E+00
  0.00000000E+00  1.00000000E+00  0.00000000E+00  0.00000000E+00  0.00000000E+00
  0.00000000E+00  0.00000000E+00  0.00000000E+00  0.00000000E+00  0.00000000E+00
  0.00000000E+00  0.00000000E+00
MxBond                                     I                2
NBond                                      I   N=           5
           1           2           2           2           1
IBond                                      I   N=          10
           2           0           1           3           2           4
           3           5           4           0
RBond                                      R   N=          10
  1.00000000E+00  0.00000000E+00  1.00000000E+00  1.00000000E+00  1.00000000E+00
  1.00000000E+00  1.00000000E+00  2.00000000E+00  2.00000000E+00  0.00000000E+00
Virial Ratio                               R      2.002180357750262E+00
SCF Energy                                 R     -2.795058397549769E+02
MP2 Energy                                 R     -2.804550179105831E+02
Total Energy                               R     -2.804550179105831E+02
Post-SCF wavefunction norm                 R      1.583687618261859E+00
RMS Force                                  R      2.924471869090765E-03
RMS Density                                R      4.743772795552626E-09
NImag                                      I                0
Job Status                                 I                1
Nuclear derivative order                   I                2
External E-field                           R   N=          35
  0.00000000E+00  0.00000000E+00  0.00000000E+00  0.00000000E+00  0.00000000E+00
  0.00000000E+00  0.00000000E+00  0.00000000E+00  0.00000000E+00  0.00000000E+00
  0.00000000E+00  0.00000000E+00  0.00000000E+00  0.00000000E+00  0.00000000E+00
  0.00000000E+00  0.00000000E+00  0.00000000E+00  0.00000000E+00  0.00000000E+00
  0.00000000E+00  0.00000000E+00  0.00000000E+00  0.00000000E+00  0.00000000E+00
  0.00000000E+00  0.00000000E+00  0.00000000E+00  0.00000000E+00  0.00000000E+00
  0.00000000E+00  0.00000000E+00  0.00000000E+00  0.00000000E+00  0.00000000E+00
IOpCl                                      I                0
IROHF                                      I                0
Alpha Orbital Energies                     R   N=         207
 -2.07217171E+01 -2.06882226E+01 -2.06659772E+01 -1.58260275E+01 -1.64665146E+00
 -1.50490900E+00 -1.29370112E+00 -9.60619071E-01 -8.38046138E-01 -7.59760243E-01
 -7.41250949E-01 -6.35544219E-01 -6.19587729E-01 -6.17807125E-01 -5.05785011E-01
 -4.97970086E-01  3.53818636E-02  5.95063631E-02  9.49870992E-02  9.98487157E-02
  1.19685378E-01  1.22791855E-01  1.49918652E-01  1.53008266E-01  1.77359464E-01
  1.79886805E-01  1.89585270E-01  2.10964373E-01  2.16715174E-01  2.44385661E-01
  2.46173093E-01  2.69231785E-01  3.15147613E-01  3.19123489E-01  3.38137088E-01
  3.41543317E-01  3.46289686E-01  3.94370982E-01  4.51531922E-01  4.89703638E-01
  5.05526287E-01  5.17499147E-01  5.45468124E-01  5.60631966E-01  5.97463820E-01
  6.19915001E-01  6.39252962E-01  6.90756747E-01  7.16386372E-01  7.23158073E-01
  7.45135581E-01  7.66812984E-01  7.68326311E-01  7.95937018E-01  8.08815072E-01
  8.37752576E-01  8.42230459E-01  8.52568976E-01  8.85310253E-01  9.09130095E-01
  9.33178563E-01  9.47237404E-01  9.55297679E-01  1.01810539E+00  1.03544325E+00
  1.06751635E+00  1.07543315E+00  1.09955866E+00  1.15013566E+00  1.15673982E+00
  1.16994155E+00  1.22244577E+00  1.23003525E+00  1.24493120E+00  1.35030446E+00
  1.36203312E+00  1.36925570E+00  1.46949476E+00  1.48584604E+00  1.50275215E+00
  1.54755966E+00  1.59628570E+00  1.60252527E+00  1.60616143E+00  1.63405421E+00
  1.69602693E+00  1.74141047E+00  1.79959072E+00  1.82779897E+00  1.88806125E+00
  1.90019139E+00  1.93397734E+00  1.98089258E+00  1.99342632E+00  2.05327351E+00
  2.11968322E+00  2.13427766E+00  2.16785012E+00  2.19330863E+00  2.24611728E+00
  2.26355860E+00  2.29268925E+00  2.36080274E+00  2.37350028E+00  2.38401659E+00
  2.40650115E+00  2.43782833E+00  2.47136703E+00  2.48373543E+00  2.53317712E+00
  2.54065320E+00  2.55463206E+00  2.56222837E+00  2.62125536E+00  2.63465147E+00
  2.67687719E+00  2.68167114E+00  2.75527105E+00  2.80894097E+00  2.82672458E+00
  2.83921913E+00  2.92380394E+00  2.98622958E+00  3.04797583E+00  3.05814335E+00
  3.11003020E+00  3.12052700E+00  3.19213843E+00  3.21652921E+00  3.30915644E+00
  3.33227697E+00  3.35483947E+00  3.48550986E+00  3.67010178E+00  3.87135955E+00
  3.94733408E+00  4.19331585E+00  4.22777558E+00  4.23825462E+00  4.28034919E+00
  4.37684765E+00  4.49559406E+00  4.55490163E+00  4.56496948E+00  4.60226031E+00
  4.68562961E+00  4.80703237E+00  4.89511232E+00  4.91596687E+00  4.94421589E+00
  4.99952434E+00  5.00398652E+00  5.10491277E+00  5.14171628E+00  5.17469578E+00
  5.25554106E+00  5.25931227E+00  5.31946858E+00  5.35359999E+00  5.39484816E+00
  5.54000972E+00  5.64391293E+00  5.71023748E+00  5.89327348E+00  5.99297045E+00
  6.26162889E+00  6.29473383E+00  6.36001019E+00  6.37609372E+00  6.60084071E+00
  6.66152631E+00  6.66897826E+00  6.70064122E+00  6.72314075E+00  6.79137246E+00
  6.80466152E+00  6.85899405E+00  6.96867818E+00  7.01949556E+00  7.06618133E+00
  7.07962600E+00  7.14018062E+00  7.17461518E+00  7.19875032E+00  7.20646303E+00
  7.24771994E+00  7.24884284E+00  7.27419606E+00  7.35562693E+00  7.40223101E+00
  7.43118090E+00  7.44116473E+00  7.46213789E+00  7.56792649E+00  7.66120537E+00
  7.68763692E+00  7.79355539E+00  7.88783388E+00  7.96139638E+00  8.09451833E+00
  8.31725907E+00  8.50944673E+00  8.64889504E+00  1.36402585E+01  1.47288012E+01
  1.51442511E+01  1.58358707E+01
Alpha MO coefficients                      R   N=       42849
  6.17026145E-05  3.41858089E-05 -1.09364181E-03  8.84542123E-06 -5.03484724E-05
  4.04167835E-05  0.00000000E+00 -9.62510508E-05 -2.64659913E-04  0.00000000E+00
 -3.56221035E-05 -3.54367913E-04  0.00000000E+00  4.00050004E-05  0.00000000E+00
  0.00000000E+00 -2.22287173E-05  1.39262353E-05  2.34016305E-04  0.00000000E+00
  0.00000000E+00 -4.18500631E-05 -2.17792077E-04  2.85066839E-03 -9.54098479E-05
 -1.05910086E-04  3.45026252E-03  2.45003341E-03  9.92466646E-05 -5.49348567E-05
  0.00000000E+00 -7.04897347E-04  2.99277352E-04  0.00000000E+00 -1.88430652E-03
  1.20999313E-03  0.00000000E+00 -5.24932423E-04  2.91510101E-05  0.00000000E+00
  2.04738565E-05  0.00000000E+00  0.00000000E+00 -6.88966510E-06  4.45288051E-05
 -4.37994770E-04  0.00000000E+00  0.00000000E+00  3.92085674E-04 -6.77595607E-04
 -3.56858550E-04  0.00000000E+00  0.00000000E+00  4.93891628E-04 -7.81907079E-04
  0.00000000E+00  7.17447673E-05 -5.32397667E-05  0.00000000E+00  0.00000000E+00
 -2.15416259E-05  1.10439099E-04  0.00000000E+00  2.09711289E-04 -5.79019332E-05
  0.00000000E+00  0.00000000E+00 -1.40372554E-04  3.06702683E-04  9.76907663E-01
 -9.18488321E-03  4.33962053E-02  5.36165524E-04 -2.24260769E-03  4.26275440E-04
 -2.15700588E-03  0.00000000E+00 -3.00627859E-04  2.27377337E-03  0.00000000E+00
 -2.23492292E-03 -5.24300092E-04  0.00000000E+00 -1.89372005E-04  1.12439724E-04
  0.00000000E+00  9.53162492E-06  0.00000000E+00  0.00000000E+00 -7.73242519E-06
  3.55163814E-05  8.19447124E-04  0.00000000E+00  0.00000000E+00 -4.45344853E-04
 -1.51560751E-04 -1.40920975E-04  0.00000000E+00  0.00000000E+00 -5.92952894E-04
  3.50154022E-04  0.00000000E+00 -6.52431999E-06 -8.06184100E-05  0.00000000E+00
  0.00000000E+00 -7.89642973E-06  4.78687445E-05  0.00000000E+00  8.77237141E-05
  2.51834065E-06  0.00000000E+00  0.00000000E+00 -3.15488660E-04  3.80506699E-04
  1.03401143E-04  4.50948708E-04 -3.24084244E-04 -8.04979774E-04  4.42544652E-04
 -4.27532903E-05 -9.97497752E-05  0.00000000E+00  6.77851186E-04  1.09934234E-03
  0.00000000E+00 -7.75967560E-04 -5.82760055E-04  0.00000000E+00  2.09518304E-04
  2.23805024E-04  0.00000000E+00 -5.12643875E-05  0.00000000E+00  0.00000000E+00
  1.86065036E-05  9.31578729E-05 -4.20921820E-04  0.00000000E+00  0.00000000E+00
  7.56794807E-06  1.07309523E-03  2.13674234E-05  0.00000000E+00  0.00000000E+00
 -3.36134296E-04  4.27260819E-05  0.00000000E+00 -7.79137818E-05 -1.12702046E-04
  0.00000000E+00  0.00000000E+00 -9.96723093E-05  1.05864897E-04  0.00000000E+00
 -1.29577178E-04  3.78944153E-05  0.00000000E+00  0.00000000E+00 -3.05639655E-06
  5.04931444E-04 -6.80719239E-04  4.49754405E-05 -6.87678475E-05  2.46181570E-04
 -2.47573172E-04 -2.93594611E-05 -4.03799095E-05  0.00000000E+00  1.71566376E-04
  2.45152547E-04  0.00000000E+00  5.20256079E-04  3.17553707E-04  0.00000000E+00
 -2.29746119E-04 -7.56284733E-05  0.00000000E+00 -1.27207193E-05  0.00000000E+00
  0.00000000E+00  2.90359891E-06  1.58309842E-05 -1.39054526E-06  0.00000000E+00
  0.00000000E+00 -1.57104134E-04  7.88533727E-06 -1.29103153E-05  0.00000000E+00
  0.00000000E+00 -1.73841313E-04 -4.66730962E-05  0.00000000E+00 -6.54576868E-06
 -9.15255077E-06  0.00000000E+00  0.00000000E+00 -2.01061842E-05  1.00769016E-05
  0.00000000E+00  4.17467721E-05  6.22141018E-05  0.00000000E+00  0.00000000E+00
  1.51622459E-04 -1.04827745E-04  3.59236984E-05  7.27671836E-05 -6.02552362E-05
 -3.20164952E-05  3.18890193E-05  2.18718476E-05  0.00000000E+00  2.11004245E-04
  3.38936317E-05  0.00000000E+00  1.01161029E-04  1.38607881E-05  0.00000000E+00
  5.72005924E-06  0.00000000E+00  0.00000000E+00 -2.35349055E-06  2.56189845E-05
  8.02777685E-06  0.00000000E+00  0.00000000E+00 -7.76004363E-05  8.47652533E-05
 -2.49797077E-04  4.49778623E-05 -1.47847833E-05 -5.79115805E-04  1.39644402E-04
  9.07845334E-06  1.22065665E-05  0.00000000E+00 -1.38712763E-05 -3.98647806E-05
  0.00000000E+00  2.10070802E-04  1.43881227E-04  0.00000000E+00 -3.49868780E-05
  5.58265292E-05  0.00000000E+00 -3.55626933E-06  0.00000000E+00  0.00000000E+00
 -8.99444808E-06 -9.78725015E-06  3.05645391E-05  0.00000000E+00  0.00000000E+00
  6.62517460E-05  1.05629528E-04  7.01076871E-05  0.00000000E+00  0.00000000E+00
 -4.67627157E-05 -8.58493526E-05  0.00000000E+00  8.38381603E-06  8.30752542E-06
  0.00000000E+00  0.00000000E+00 -1.90401517E-06 -2.91593536E-05  0.00000000E+00
 -1.75865150E-05 -4.19306073E-05  0.00000000E+00  0.00000000E+00 -8.52647421E-06
 -1.24031743E-05  7.08330980E-04  2.21154882E-05 -1.98780519E-05  2.94443380E-04
 -4.11747440E-04  1.67326635E-05  2.73340537E-05  0.00000000E+00 -6.66628391E-05
 -1.53932390E-04  0.00000000E+00  1.69639396E-04 -2.28596433E-04  0.00000000E+00
 -1.58056662E-04  1.44590049E-04  0.00000000E+00 -4.17108852E-06  0.00000000E+00
  0.00000000E+00 -2.91161101E-05 -1.04632376E-05 -5.08569768E-05  0.00000000E+00
  0.00000000E+00  7.53809892E-05  1.24087217E-04 -6.47214286E-05  0.00000000E+00
  0.00000000E+00  1.98773646E-05  2.51266719E-05  0.00000000E+00  3.21506169E-06
  3.34409571E-06  0.00000000E+00  0.00000000E+00 -8.34438371E-06 -3.13322772E-06
  0.00000000E+00  3.55232657E-06 -2.49647058E-05  0.00000000E+00  0.00000000E+00
  1.00926106E-04 -1.50216120E-04  2.36156917E-04  1.35306879E-03 -1.45965244E-04
 -7.22971932E-04  9.33862341E-04  6.37674807E-05 -7.06374263E-05  0.00000000E+00
  5.79904926E-04 -2.08008386E-03  0.00000000E+00  9.81264762E-05  5.51416954E-04
  0.00000000E+00  1.94656252E-04 -3.06122788E-04  0.00000000E+00 -1.27298243E-04
  0.00000000E+00  0.00000000E+00 -2.02303995E-04 -1.60039548E-04 -4.60783761E-04
  0.00000000E+00  0.00000000E+00 -5.93232833E-04 -9.30036215E-04 -4.46858181E-05
  0.00000000E+00  0.00000000E+00  5.44942066E-05  1.32373091E-04  0.00000000E+00
  8.25891087E-06  3.72236865E-05  0.00000000E+00  0.00000000E+00 -2.44952256E-05
 -4.58261748E-06  0.00000000E+00 -1.38423419E-04  1.54101763E-04  0.00000000E+00
  0.00000000E+00 -3.17891605E-04 -4.55307961E-05  9.76644383E-01 -9.88099858E-03
  4.35787329E-02  3.71130593E-03 -9.17612647E-04 -4.49232419E-04  2.13053899E-03
  0.00000000E+00  5.24766463E-04 -2.50532102E-03  0.00000000E+00 -1.12179638E-04
  8.37721105E-04  0.00000000E+00  1.01731731E-04 -6.63456100E-05  0.00000000E+00
 -1.93767456E-04  0.00000000E+00  0.00000000E+00 -7.25973777E-05 -4.36369422E-05
  4.09239734E-04  0.00000000E+00  0.00000000E+00  8.53617565E-04  4.91196886E-04
 -1.98196993E-04  0.00000000E+00  0.00000000E+00 -1.58603492E-04 -3.78869703E-05
  0.00000000E+00 -6.59260900E-06  7.00768027E-05  0.00000000E+00  0.00000000E+00
 -2.66155303E-05  1.05055660E-05  0.00000000E+00 -8.51398586E-05  9.13372748E-05
  0.00000000E+00  0.00000000E+00 -1.77350538E-04  2.00928652E-04  3.66091149E-04
  1.98964654E-03  1.54976760E-03 -1.63601018E-05  5.71545745E-05  2.63350434E-04
  0.00000000E+00  3.60244607E-04  1.00205167E-03  0.00000000E+00 -1.90183102E-04
  2.33319663E-04  0.00000000E+00 -2.36425697E-05  0.00000000E+00  0.00000000E+00
  3.58789417E-05 -3.41934571E-05 -2.31205146E-04  0.00000000E+00  0.00000000E+00
 -3.35836255E-04  4.35700124E-04  9.76829190E-01 -9.19151827E-03  4.34748279E-02
  1.05206074E-04 -1.89545334E-03 -2.06594959E-03 -7.71970568E-04  0.00000000E+00
  2.10463722E-03  7.06596183E-04  0.00000000E+00 -3.70749664E-04  6.15950545E-04
  0.00000000E+00  2.24747828E-04 -3.10772079E-04  0.00000000E+00  2.85371724E-05
  0.00000000E+00  0.00000000E+00 -7.13600670E-05  6.89034218E-05  7.64287127E-04
  0.00000000E+00  0.00000000E+00 -2.01586844E-04  3.64515454E-04 -2.47345169E-04
  0.00000000E+00  0.00000000E+00  3.17316162E-04 -1.06756727E-07  0.00000000E+00
 -8.10355270E-05  3.59863352E-06  0.00000000E+00  0.00000000E+00  1.32855732E-05