 Entering Gaussian System, Link 0=g16
 Input=hoono_r1_1p000665.gjf
 Output=hoono_r1_1p000665.log
 Initial command:
 /sw/contrib/gaussian/g16/B01/g16/l1.exe "/scr/Gau-14092.inp" -scrdir="/scr/"
 Entering Link 1 = /sw/contrib/gaussian/g16/B01/g16/l1.exe PID=     14093.
  
 Copyright (c) 1988-2017, Gaussian, Inc.  All Rights Reserved.
  
 This is part of the Gaussian(R) 16 program.  It is based on
 the Gaussian(R) 09 system (copyright 2009, Gaussian, Inc.),
 the Gaussian(R) 03 system (copyright 2003, Gaussian, Inc.),
 the Gaussian(R) 98 system (copyright 1998, Gaussian, Inc.),
 the Gaussian(R) 94 system (copyright 1995, Gaussian, Inc.),
 the Gaussian 92(TM) system (copyright 1992, Gaussian, Inc.),
 the Gaussian 90(TM) system (copyright 1990, Gaussian, Inc.),
 the Gaussian 88(TM) system (copyright 1988, Gaussian, Inc.),
 the Gaussian 86(TM) system (copyright 1986, Carnegie Mellon
 University), and the Gaussian 82(TM) system (copyright 1983,
 Carnegie Mellon University). Gaussian is a federally registered
 trademark of Gaussian, Inc.
  
 This software contains proprietary and confidential information,
 including trade secrets, belonging to Gaussian, Inc.
  
 This software is provided under written license and may be
 used, copied, transmitted, or stored only in accord with that
 written license.
  
 The following legend is applicable only to US Government
 contracts under FAR:
  
                    RESTRICTED RIGHTS LEGEND
  
 Use, reproduction and disclosure by the US Government is
 subject to restrictions as set forth in subparagraphs (a)
 and (c) of the Commercial Computer Software - Restricted
 Rights clause in FAR 52.227-19.
  
 Gaussian, Inc.
 340 Quinnipiac St., Bldg. 40, Wallingford CT 06492
  
  
 ---------------------------------------------------------------
 Warning -- This program may not be used in any manner that
 competes with the business of Gaussian, Inc. or will provide
 assistance to any competitor of Gaussian, Inc.  The licensee
 of this program is prohibited from giving any competitor of
 Gaussian, Inc. access to this program.  By using this program,
 the user acknowledges that Gaussian, Inc. is engaged in the
 business of creating and licensing software in the field of
 computational chemistry and represents and warrants to the
 licensee that it is not a competitor of Gaussian, Inc. and that
 it will not use this program in any manner prohibited above.
 ---------------------------------------------------------------
  

 Cite this work as:
 Gaussian 16, Revision B.01,
 M. J. Frisch, G. W. Trucks, H. B. Schlegel, G. E. Scuseria, 
 M. A. Robb, J. R. Cheeseman, G. Scalmani, V. Barone, 
 G. A. Petersson, H. Nakatsuji, X. Li, M. Caricato, A. V. Marenich, 
 J. Bloino, B. G. Janesko, R. Gomperts, B. Mennucci, H. P. Hratchian, 
 J. V. Ortiz, A. F. Izmaylov, J. L. Sonnenberg, D. Williams-Young, 
 F. Ding, F. Lipparini, F. Egidi, J. Goings, B. Peng, A. Petrone, 
 T. Henderson, D. Ranasinghe, V. G. Zakrzewski, J. Gao, N. Rega, 
 G. Zheng, W. Liang, M. Hada, M. Ehara, K. Toyota, R. Fukuda, 
 J. Hasegawa, M. Ishida, T. Nakajima, Y. Honda, O. Kitao, H. Nakai, 
 T. Vreven, K. Throssell, J. A. Montgomery, Jr., J. E. Peralta, 
 F. Ogliaro, M. J. Bearpark, J. J. Heyd, E. N. Brothers, K. N. Kudin, 
 V. N. Staroverov, T. A. Keith, R. Kobayashi, J. Normand, 
 K. Raghavachari, A. P. Rendell, J. C. Burant, S. S. Iyengar, 
 J. Tomasi, M. Cossi, J. M. Millam, M. Klene, C. Adamo, R. Cammi, 
 J. W. Ochterski, R. L. Martin, K. Morokuma, O. Farkas, 
 J. B. Foresman, and D. J. Fox, Gaussian, Inc., Wallingford CT, 2016.
 
 ******************************************
 Gaussian 16:  ES64L-G16RevB.01 20-Dec-2017
                 6-Mar-2022 
 ******************************************
 %nproc=28
 Will use up to   28 processors via shared memory.
 %mem=120GB
 %chk=hoono_r1_1p000665.chk
 ---------------------------------------
 #p freq mp2/aug-cc-pvtz density=current
 ---------------------------------------
 1/10=4,30=1,38=1/1,3;
 2/12=2,17=6,18=5,40=1/2;
 3/5=16,6=1,7=10,11=9,25=1,30=1,71=2,140=1/1,2,3;
 4//1;
 5/5=2,38=5,98=1/2;
 8/6=3,8=1,10=1,19=11,30=-1/1;
 9/15=3,16=-3/6;
 11/6=1,8=1,15=11,17=12,24=-1,27=1,28=-2,29=300,32=6,42=3/1,2,10;
 10/6=2,21=1/2;
 8/6=4,8=1,10=1,19=11,30=-1/11,4;
 10/5=1,20=4/2;
 11/12=2,14=11,16=1,17=2,28=-2,42=3,76=2/2,10,12;
 6/7=2,8=2,9=2,10=2,22=-1/1;
 7/8=1,10=1,12=2,25=1,44=2/1,2,3,16;
 1/10=4,30=1/3;
 99//99;
 Leave Link    1 at Sun Mar  6 18:46:30 2022, MaxMem= 16106127360 cpu:               3.0 elap:               0.1
 (Enter /sw/contrib/gaussian/g16/B01/g16/l101.exe)
 -----
 title
 -----
 Symbolic Z-matrix:
 Charge =  0 Multiplicity = 1
 H
 O                    1    r1
 O                    2    r2       1    a1
 N                    3    r3       2    a2       1    d1       0
 O                    4    r4       3    a3       2    d2       0
       Variables:
  r1                    1.00067                  
  r2                    1.42674                  
  r3                    1.38111                  
  r4                    1.19479                  
  a1                  100.63551                  
  a2                  113.13777                  
  a3                  114.33392                  
  d1                    0.                       
  d2                    0.                       
 
 ITRead=  0  0  0  0  0
 MicOpt= -1 -1 -1 -1 -1
 NAtoms=      5 NQM=        5 NQMF=       0 NMMI=      0 NMMIF=      0
                NMic=       0 NMicF=      0.
                    Isotopes and Nuclear Properties:
 (Nuclear quadrupole moments (NQMom) in fm**2, nuclear magnetic moments (NMagM)
  in nuclear magnetons)

  Atom         1           2           3           4           5
 IAtWgt=           1          16          16          14          16
 AtmWgt=   1.0078250  15.9949146  15.9949146  14.0030740  15.9949146
 NucSpn=           1           0           0           2           0
 AtZEff=  -0.0000000  -0.0000000  -0.0000000  -0.0000000  -0.0000000
 NQMom=    0.0000000   0.0000000   0.0000000   2.0440000   0.0000000
 NMagM=    2.7928460   0.0000000   0.0000000   0.4037610   0.0000000
 AtZNuc=   1.0000000   8.0000000   8.0000000   7.0000000   8.0000000
 Leave Link  101 at Sun Mar  6 18:46:31 2022, MaxMem= 16106127360 cpu:               2.7 elap:               0.1
 (Enter /sw/contrib/gaussian/g16/B01/g16/l103.exe)

 GradGradGradGradGradGradGradGradGradGradGradGradGradGradGradGradGradGrad
 Berny optimization.
 Initialization pass.
                       ----------------------------
                       !    Initial Parameters    !
                       ! (Angstroms and Degrees)  !
 ----------------------                            ----------------------
 !      Name          Value   Derivative information (Atomic Units)     !
 ------------------------------------------------------------------------
 !       r1          1.0007   calculate D2E/DX2 analytically            !
 !       r2          1.4267   calculate D2E/DX2 analytically            !
 !       r3          1.3811   calculate D2E/DX2 analytically            !
 !       r4          1.1948   calculate D2E/DX2 analytically            !
 !       a1        100.6355   calculate D2E/DX2 analytically            !
 !       a2        113.1378   calculate D2E/DX2 analytically            !
 !       a3        114.3339   calculate D2E/DX2 analytically            !
 !       d1          0.0      calculate D2E/DX2 analytically            !
 !       d2          0.0      calculate D2E/DX2 analytically            !
 ------------------------------------------------------------------------
 Trust Radius=3.00D-01 FncErr=1.00D-07 GrdErr=1.00D-07 EigMax=2.50D+02 EigMin=1.00D-04
 Number of steps in this run=      2 maximum allowed number of steps=      2.
 GradGradGradGradGradGradGradGradGradGradGradGradGradGradGradGradGradGrad

 Leave Link  103 at Sun Mar  6 18:46:31 2022, MaxMem= 16106127360 cpu:               0.6 elap:               0.0
 (Enter /sw/contrib/gaussian/g16/B01/g16/l202.exe)
                          Input orientation:                          
 ---------------------------------------------------------------------
 Center     Atomic      Atomic             Coordinates (Angstroms)
 Number     Number       Type             X           Y           Z
 ---------------------------------------------------------------------
      1          1           0        0.000000    0.000000    0.000000
      2          8           0        0.000000    0.000000    1.000666
      3          8           0        1.402227    0.000000    1.263985
      4          7           0        2.169996    0.000000    0.115948
      5          8           0        1.538751    0.000000   -0.898473
 ---------------------------------------------------------------------
                    Distance matrix (angstroms):
                    1          2          3          4          5
     1  H    0.000000
     2  O    1.000666   0.000000
     3  O    1.887829   1.426737   0.000000
     4  N    2.173091   2.343418   1.381108   0.000000
     5  O    1.781856   2.444276   2.166763   1.194788   0.000000
 Stoichiometry    HNO3
 Framework group  CS[SG(HNO3)]
 Deg. of freedom     7
 Full point group                 CS      NOp   2
 Largest Abelian subgroup         CS      NOp   2
 Largest concise Abelian subgroup C1      NOp   1
                         Standard orientation:                         
 ---------------------------------------------------------------------
 Center     Atomic      Atomic             Coordinates (Angstroms)
 Number     Number       Type             X           Y           Z
 ---------------------------------------------------------------------
      1          1           0        1.106153   -0.612356    0.000000
      2          8           0        1.315890    0.366083    0.000000
      3          8           0       -0.000000    0.917456    0.000000
      4          7           0       -0.991340   -0.044159    0.000000
      5          8           0       -0.586736   -1.168355    0.000000
 ---------------------------------------------------------------------
 Rotational constants (GHZ):          21.3296494           8.1088373           5.8752564
 Leave Link  202 at Sun Mar  6 18:46:31 2022, MaxMem= 16106127360 cpu:               0.4 elap:               0.0
 (Enter /sw/contrib/gaussian/g16/B01/g16/l301.exe)
 Standard basis: Aug-CC-pVTZ (5D, 7F)
 Ernie: Thresh=  0.10000D-02 Tol=  0.10000D-05 Strict=F.
 Ernie:  12 primitive shells out of 131 were deleted.
 There are   166 symmetry adapted cartesian basis functions of A'  symmetry.
 There are    79 symmetry adapted cartesian basis functions of A"  symmetry.
 There are   136 symmetry adapted basis functions of A'  symmetry.
 There are    71 symmetry adapted basis functions of A"  symmetry.
   207 basis functions,   315 primitive gaussians,   245 cartesian basis functions
    16 alpha electrons       16 beta electrons
       nuclear repulsion energy       122.6821984114 Hartrees.
 IExCor=    0 DFT=F Ex=HF Corr=None ExCW=0 ScaHFX=  1.000000
 ScaDFX=  1.000000  1.000000  1.000000  1.000000 ScalE2=  1.000000  1.000000
 IRadAn=      5 IRanWt=     -1 IRanGd=            0 ICorTp=0 IEmpDi=  4
 NAtoms=    5 NActive=    5 NUniq=    5 SFac= 1.00D+00 NAtFMM=   60 NAOKFM=F Big=F
 Integral buffers will be    131072 words long.
 Raffenetti 1 integral format.
 Two-electron integral symmetry is turned on.
 Leave Link  301 at Sun Mar  6 18:46:31 2022, MaxMem= 16106127360 cpu:               1.7 elap:               0.1
 (Enter /sw/contrib/gaussian/g16/B01/g16/l302.exe)
 NPDir=0 NMtPBC=     1 NCelOv=     1 NCel=       1 NClECP=     1 NCelD=      1
         NCelK=      1 NCelE2=     1 NClLst=     1 CellRange=     0.0.
 One-electron integrals computed using PRISM.
 One-electron integral symmetry used in STVInt
 NBasis=   207 RedAO= T EigKep=  1.31D-04  NBF=   136    71
 NBsUse=   207 1.00D-06 EigRej= -1.00D+00 NBFU=   136    71
 Leave Link  302 at Sun Mar  6 18:46:31 2022, MaxMem= 16106127360 cpu:               7.3 elap:               0.3
 (Enter /sw/contrib/gaussian/g16/B01/g16/l303.exe)
 DipDrv:  MaxL=1.
 Leave Link  303 at Sun Mar  6 18:46:31 2022, MaxMem= 16106127360 cpu:               0.8 elap:               0.1
 (Enter /sw/contrib/gaussian/g16/B01/g16/l401.exe)
 ExpMin= 2.53D-02 ExpMax= 1.53D+04 ExpMxC= 5.22D+02 IAcc=3 IRadAn=         5 AccDes= 0.00D+00
 Harris functional with IExCor=  205 and IRadAn=       5 diagonalized for initial guess.
 HarFok:  IExCor=  205 AccDes= 0.00D+00 IRadAn=         5 IDoV= 1 UseB2=F ITyADJ=14
 ICtDFT=  3500011 ScaDFX=  1.000000  1.000000  1.000000  1.000000
 FoFCou: FMM=F IPFlag=           0 FMFlag=      100000 FMFlg1=           0
         NFxFlg=           0 DoJE=T BraDBF=F KetDBF=T FulRan=T
         wScrn=  0.000000 ICntrl=       500 IOpCl=  0 I1Cent=   200000004 NGrid=           0
         NMat0=    1 NMatS0=      1 NMatT0=    0 NMatD0=    1 NMtDS0=    0 NMtDT0=    0
 Petite list used in FoFCou.
 Harris En= -279.644756143494    
 JPrj=0 DoOrth=F DoCkMO=F.
 Initial guess orbital symmetries:
       Occupied  (A') (A') (A') (A') (A') (A') (A') (A') (A') (A')
                 (A") (A') (A") (A') (A") (A')
       Virtual   (A") (A') (A') (A') (A') (A") (A') (A') (A') (A')
                 (A") (A') (A") (A') (A') (A") (A') (A') (A") (A')
                 (A') (A') (A') (A') (A") (A') (A') (A') (A") (A')
                 (A') (A") (A") (A') (A') (A") (A') (A") (A') (A")
                 (A') (A") (A') (A") (A') (A') (A') (A") (A') (A')
                 (A') (A") (A') (A") (A') (A") (A') (A') (A') (A")
                 (A') (A') (A") (A') (A') (A') (A") (A") (A') (A')
                 (A") (A') (A") (A") (A') (A') (A') (A") (A') (A')
                 (A") (A') (A') (A") (A') (A") (A') (A") (A') (A')
                 (A') (A") (A') (A") (A') (A') (A") (A') (A") (A')
                 (A") (A') (A") (A') (A") (A') (A') (A') (A") (A')
                 (A") (A') (A') (A') (A") (A') (A') (A') (A") (A')
                 (A") (A') (A') (A") (A") (A") (A") (A') (A') (A')
                 (A') (A') (A') (A") (A') (A") (A') (A") (A') (A")
                 (A') (A') (A") (A') (A') (A") (A') (A') (A') (A")
                 (A') (A') (A') (A") (A') (A") (A") (A') (A') (A")
                 (A') (A") (A") (A') (A") (A') (A') (A") (A") (A')
                 (A") (A") (A") (A') (A') (A") (A') (A') (A') (A")
                 (A') (A') (A') (A') (A') (A') (A') (A') (A') (A')
                 (A')
 The electronic state of the initial guess is 1-A'.
 Leave Link  401 at Sun Mar  6 18:46:32 2022, MaxMem= 16106127360 cpu:               7.8 elap:               0.3
 (Enter /sw/contrib/gaussian/g16/B01/g16/l502.exe)
 Keep R1 ints in memory in symmetry-blocked form, NReq=348887737.
 FoFCou: FMM=F IPFlag=           0 FMFlag=           0 FMFlg1=           0
         NFxFlg=           0 DoJE=F BraDBF=F KetDBF=F FulRan=T
         wScrn=  0.000000 ICntrl=       600 IOpCl=  0 I1Cent=           0 NGrid=           0
         NMat0=    1 NMatS0=  21528 NMatT0=    0 NMatD0=    1 NMtDS0=    0 NMtDT0=    0
 Petite list used in FoFCou.
 Closed shell SCF:
 Using DIIS extrapolation, IDIIS=  1040.
 NGot= 16106127360 LenX= 15988850015 LenY= 15988789549
 Requested convergence on RMS density matrix=1.00D-08 within 128 cycles.
 Requested convergence on MAX density matrix=1.00D-06.
 Requested convergence on             energy=1.00D-06.
 No special actions if energy rises.

 Cycle   1  Pass 1  IDiag  1:
 E= -279.364143343210    
 DIIS: error= 2.68D-02 at cycle   1 NSaved=   1.
 NSaved= 1 IEnMin= 1 EnMin= -279.364143343210     IErMin= 1 ErrMin= 2.68D-02
 ErrMax= 2.68D-02  0.00D+00 EMaxC= 1.00D-01 BMatC= 4.49D-01 BMatP= 4.49D-01
 IDIUse=3 WtCom= 7.32D-01 WtEn= 2.68D-01
 Coeff-Com:  0.100D+01
 Coeff-En:   0.100D+01
 Coeff:      0.100D+01
 Gap=     0.497 Goal=   None    Shift=    0.000
 GapD=    0.497 DampG=2.000 DampE=0.500 DampFc=1.0000 IDamp=-1.
 RMSDP=1.67D-03 MaxDP=8.79D-02              OVMax= 1.22D-01

 Cycle   2  Pass 1  IDiag  1:
 E= -279.446198272248     Delta-E=       -0.082054929038 Rises=F Damp=F
 DIIS: error= 1.90D-02 at cycle   2 NSaved=   2.
 NSaved= 2 IEnMin= 2 EnMin= -279.446198272248     IErMin= 2 ErrMin= 1.90D-02
 ErrMax= 1.90D-02  0.00D+00 EMaxC= 1.00D-01 BMatC= 8.43D-02 BMatP= 4.49D-01
 IDIUse=3 WtCom= 8.10D-01 WtEn= 1.90D-01
 Coeff-Com:  0.216D+00 0.784D+00
 Coeff-En:   0.674D-01 0.933D+00
 Coeff:      0.188D+00 0.812D+00
 Gap=     0.560 Goal=   None    Shift=    0.000
 RMSDP=9.60D-04 MaxDP=3.64D-02 DE=-8.21D-02 OVMax= 9.08D-02

 Cycle   3  Pass 1  IDiag  1:
 E= -279.482894098395     Delta-E=       -0.036695826148 Rises=F Damp=F
 DIIS: error= 1.11D-02 at cycle   3 NSaved=   3.
 NSaved= 3 IEnMin= 3 EnMin= -279.482894098395     IErMin= 3 ErrMin= 1.11D-02
 ErrMax= 1.11D-02  0.00D+00 EMaxC= 1.00D-01 BMatC= 3.10D-02 BMatP= 8.43D-02
 IDIUse=3 WtCom= 8.89D-01 WtEn= 1.11D-01
 Coeff-Com: -0.348D-01 0.367D+00 0.667D+00
 Coeff-En:   0.000D+00 0.223D+00 0.777D+00
 Coeff:     -0.309D-01 0.351D+00 0.680D+00
 Gap=     0.540 Goal=   None    Shift=    0.000
 RMSDP=4.10D-04 MaxDP=1.58D-02 DE=-3.67D-02 OVMax= 3.86D-02

 Cycle   4  Pass 1  IDiag  1:
 E= -279.504062648567     Delta-E=       -0.021168550172 Rises=F Damp=F
 DIIS: error= 1.67D-03 at cycle   4 NSaved=   4.
 NSaved= 4 IEnMin= 4 EnMin= -279.504062648567     IErMin= 4 ErrMin= 1.67D-03
 ErrMax= 1.67D-03  0.00D+00 EMaxC= 1.00D-01 BMatC= 5.88D-04 BMatP= 3.10D-02
 IDIUse=3 WtCom= 9.83D-01 WtEn= 1.67D-02
 Coeff-Com: -0.118D-01 0.462D-01 0.150D+00 0.815D+00
 Coeff-En:   0.000D+00 0.000D+00 0.000D+00 0.100D+01
 Coeff:     -0.116D-01 0.454D-01 0.148D+00 0.819D+00
 Gap=     0.527 Goal=   None    Shift=    0.000
 RMSDP=9.89D-05 MaxDP=2.29D-03 DE=-2.12D-02 OVMax= 1.17D-02

 Cycle   5  Pass 1  IDiag  1:
 E= -279.504870606800     Delta-E=       -0.000807958233 Rises=F Damp=F
 DIIS: error= 1.09D-03 at cycle   5 NSaved=   5.
 NSaved= 5 IEnMin= 5 EnMin= -279.504870606800     IErMin= 5 ErrMin= 1.09D-03
 ErrMax= 1.09D-03  0.00D+00 EMaxC= 1.00D-01 BMatC= 1.03D-04 BMatP= 5.88D-04
 IDIUse=3 WtCom= 9.89D-01 WtEn= 1.09D-02
 Coeff-Com:  0.538D-02-0.665D-01-0.110D+00 0.646D-01 0.111D+01
 Coeff-En:   0.000D+00 0.000D+00 0.000D+00 0.000D+00 0.100D+01
 Coeff:      0.532D-02-0.658D-01-0.109D+00 0.639D-01 0.111D+01
 Gap=     0.531 Goal=   None    Shift=    0.000
 RMSDP=7.96D-05 MaxDP=2.12D-03 DE=-8.08D-04 OVMax= 1.29D-02

 Cycle   6  Pass 1  IDiag  1:
 E= -279.505232946223     Delta-E=       -0.000362339423 Rises=F Damp=F
 DIIS: error= 3.40D-04 at cycle   6 NSaved=   6.
 NSaved= 6 IEnMin= 6 EnMin= -279.505232946223     IErMin= 6 ErrMin= 3.40D-04
 ErrMax= 3.40D-04  0.00D+00 EMaxC= 1.00D-01 BMatC= 2.43D-05 BMatP= 1.03D-04
 IDIUse=3 WtCom= 9.97D-01 WtEn= 3.40D-03
 Coeff-Com:  0.191D-02-0.735D-02-0.181D-01-0.186D+00 0.210D-01 0.119D+01
 Coeff-En:   0.000D+00 0.000D+00 0.000D+00 0.000D+00 0.000D+00 0.100D+01
 Coeff:      0.190D-02-0.733D-02-0.181D-01-0.185D+00 0.210D-01 0.119D+01
 Gap=     0.531 Goal=   None    Shift=    0.000
 RMSDP=4.67D-05 MaxDP=1.08D-03 DE=-3.62D-04 OVMax= 6.13D-03

 Cycle   7  Pass 1  IDiag  1:
 E= -279.505319315129     Delta-E=       -0.000086368906 Rises=F Damp=F
 DIIS: error= 1.28D-04 at cycle   7 NSaved=   7.
 NSaved= 7 IEnMin= 7 EnMin= -279.505319315129     IErMin= 7 ErrMin= 1.28D-04
 ErrMax= 1.28D-04  0.00D+00 EMaxC= 1.00D-01 BMatC= 3.56D-06 BMatP= 2.43D-05
 IDIUse=3 WtCom= 9.99D-01 WtEn= 1.28D-03
 Coeff-Com: -0.111D-02 0.116D-01 0.252D-01 0.182D-01-0.182D+00-0.164D+00
 Coeff-Com:  0.129D+01
 Coeff-En:   0.000D+00 0.000D+00 0.000D+00 0.000D+00 0.000D+00 0.000D+00
 Coeff-En:   0.100D+01
 Coeff:     -0.111D-02 0.116D-01 0.252D-01 0.182D-01-0.182D+00-0.164D+00
 Coeff:      0.129D+01
 Gap=     0.532 Goal=   None    Shift=    0.000
 RMSDP=1.77D-05 MaxDP=5.18D-04 DE=-8.64D-05 OVMax= 2.36D-03

 Cycle   8  Pass 1  IDiag  1:
 E= -279.505331415373     Delta-E=       -0.000012100243 Rises=F Damp=F
 DIIS: error= 4.64D-05 at cycle   8 NSaved=   8.
 NSaved= 8 IEnMin= 8 EnMin= -279.505331415373     IErMin= 8 ErrMin= 4.64D-05
 ErrMax= 4.64D-05  0.00D+00 EMaxC= 1.00D-01 BMatC= 5.82D-07 BMatP= 3.56D-06
 IDIUse=1 WtCom= 1.00D+00 WtEn= 0.00D+00
 Coeff-Com: -0.555D-03 0.409D-02 0.959D-02 0.249D-01-0.570D-01-0.189D+00
 Coeff-Com:  0.349D+00 0.859D+00
 Coeff:     -0.555D-03 0.409D-02 0.959D-02 0.249D-01-0.570D-01-0.189D+00
 Coeff:      0.349D+00 0.859D+00
 Gap=     0.532 Goal=   None    Shift=    0.000
 RMSDP=5.32D-06 MaxDP=1.50D-04 DE=-1.21D-05 OVMax= 6.36D-04

 Cycle   9  Pass 1  IDiag  1:
 E= -279.505332756010     Delta-E=       -0.000001340637 Rises=F Damp=F
 DIIS: error= 2.45D-05 at cycle   9 NSaved=   9.
 NSaved= 9 IEnMin= 9 EnMin= -279.505332756010     IErMin= 9 ErrMin= 2.45D-05
 ErrMax= 2.45D-05  0.00D+00 EMaxC= 1.00D-01 BMatC= 1.19D-07 BMatP= 5.82D-07
 IDIUse=1 WtCom= 1.00D+00 WtEn= 0.00D+00
 Coeff-Com:  0.244D-03-0.261D-02-0.537D-02-0.561D-02 0.473D-01 0.493D-01
 Coeff-Com: -0.344D+00 0.468D-01 0.121D+01
 Coeff:      0.244D-03-0.261D-02-0.537D-02-0.561D-02 0.473D-01 0.493D-01
 Coeff:     -0.344D+00 0.468D-01 0.121D+01
 Gap=     0.532 Goal=   None    Shift=    0.000
 RMSDP=2.47D-06 MaxDP=6.71D-05 DE=-1.34D-06 OVMax= 2.60D-04

 Cycle  10  Pass 1  IDiag  1:
 E= -279.505333021537     Delta-E=       -0.000000265528 Rises=F Damp=F
 DIIS: error= 5.62D-06 at cycle  10 NSaved=  10.
 NSaved=10 IEnMin=10 EnMin= -279.505333021537     IErMin=10 ErrMin= 5.62D-06
 ErrMax= 5.62D-06  0.00D+00 EMaxC= 1.00D-01 BMatC= 8.26D-09 BMatP= 1.19D-07
 IDIUse=1 WtCom= 1.00D+00 WtEn= 0.00D+00
 Coeff-Com: -0.370D-04 0.484D-03 0.116D-02-0.193D-02-0.106D-01 0.564D-02
 Coeff-Com:  0.710D-01-0.585D-01-0.421D+00 0.141D+01
 Coeff:     -0.370D-04 0.484D-03 0.116D-02-0.193D-02-0.106D-01 0.564D-02
 Coeff:      0.710D-01-0.585D-01-0.421D+00 0.141D+01
 Gap=     0.532 Goal=   None    Shift=    0.000
 RMSDP=7.01D-07 MaxDP=2.52D-05 DE=-2.66D-07 OVMax= 7.53D-05

 Cycle  11  Pass 1  IDiag  1:
 E= -279.505333046341     Delta-E=       -0.000000024804 Rises=F Damp=F
 DIIS: error= 2.17D-06 at cycle  11 NSaved=  11.
 NSaved=11 IEnMin=11 EnMin= -279.505333046341     IErMin=11 ErrMin= 2.17D-06
 ErrMax= 2.17D-06  0.00D+00 EMaxC= 1.00D-01 BMatC= 8.53D-10 BMatP= 8.26D-09
 IDIUse=1 WtCom= 1.00D+00 WtEn= 0.00D+00
 Coeff-Com: -0.170D-04 0.176D-03 0.365D-03 0.886D-03-0.241D-02-0.714D-02
 Coeff-Com:  0.204D-01 0.181D-01-0.563D-01-0.305D+00 0.133D+01
 Coeff:     -0.170D-04 0.176D-03 0.365D-03 0.886D-03-0.241D-02-0.714D-02
 Coeff:      0.204D-01 0.181D-01-0.563D-01-0.305D+00 0.133D+01
 Gap=     0.532 Goal=   None    Shift=    0.000
 RMSDP=2.43D-07 MaxDP=9.02D-06 DE=-2.48D-08 OVMax= 2.83D-05

 Cycle  12  Pass 1  IDiag  1:
 E= -279.505333049374     Delta-E=       -0.000000003032 Rises=F Damp=F
 DIIS: error= 7.54D-07 at cycle  12 NSaved=  12.
 NSaved=12 IEnMin=12 EnMin= -279.505333049374     IErMin=12 ErrMin= 7.54D-07
 ErrMax= 7.54D-07  0.00D+00 EMaxC= 1.00D-01 BMatC= 9.28D-11 BMatP= 8.53D-10
 IDIUse=1 WtCom= 1.00D+00 WtEn= 0.00D+00
 Coeff-Com:  0.250D-05-0.454D-04-0.981D-04 0.166D-03 0.114D-02-0.909D-03
 Coeff-Com: -0.733D-02 0.754D-02 0.414D-01-0.124D+00-0.168D+00 0.125D+01
 Coeff:      0.250D-05-0.454D-04-0.981D-04 0.166D-03 0.114D-02-0.909D-03
 Coeff:     -0.733D-02 0.754D-02 0.414D-01-0.124D+00-0.168D+00 0.125D+01
 Gap=     0.532 Goal=   None    Shift=    0.000
 RMSDP=8.71D-08 MaxDP=2.85D-06 DE=-3.03D-09 OVMax= 1.01D-05

 Cycle  13  Pass 1  IDiag  1:
 E= -279.505333049701     Delta-E=       -0.000000000328 Rises=F Damp=F
 DIIS: error= 1.73D-07 at cycle  13 NSaved=  13.
 NSaved=13 IEnMin=13 EnMin= -279.505333049701     IErMin=13 ErrMin= 1.73D-07
 ErrMax= 1.73D-07  0.00D+00 EMaxC= 1.00D-01 BMatC= 8.05D-12 BMatP= 9.28D-11
 IDIUse=1 WtCom= 1.00D+00 WtEn= 0.00D+00
 Coeff-Com:  0.139D-05-0.135D-04-0.196D-04-0.126D-03 0.698D-04 0.953D-03
 Coeff-Com: -0.121D-02-0.258D-02-0.138D-02 0.551D-01-0.132D+00-0.155D+00
 Coeff-Com:  0.124D+01
 Coeff:      0.139D-05-0.135D-04-0.196D-04-0.126D-03 0.698D-04 0.953D-03
 Coeff:     -0.121D-02-0.258D-02-0.138D-02 0.551D-01-0.132D+00-0.155D+00
 Coeff:      0.124D+01
 Gap=     0.532 Goal=   None    Shift=    0.000
 RMSDP=2.38D-08 MaxDP=7.05D-07 DE=-3.28D-10 OVMax= 2.16D-06

 Cycle  14  Pass 1  IDiag  1:
 E= -279.505333049726     Delta-E=       -0.000000000024 Rises=F Damp=F
 DIIS: error= 4.28D-08 at cycle  14 NSaved=  14.
 NSaved=14 IEnMin=14 EnMin= -279.505333049726     IErMin=14 ErrMin= 4.28D-08
 ErrMax= 4.28D-08  0.00D+00 EMaxC= 1.00D-01 BMatC= 5.31D-13 BMatP= 8.05D-12
 IDIUse=1 WtCom= 1.00D+00 WtEn= 0.00D+00
 Coeff-Com: -0.303D-06 0.461D-05 0.919D-05-0.561D-05-0.117D-03 0.704D-04
 Coeff-Com:  0.668D-03-0.400D-03-0.368D-02 0.867D-02 0.170D-01-0.906D-01
 Coeff-Com: -0.269D-01 0.110D+01
 Coeff:     -0.303D-06 0.461D-05 0.919D-05-0.561D-05-0.117D-03 0.704D-04
 Coeff:      0.668D-03-0.400D-03-0.368D-02 0.867D-02 0.170D-01-0.906D-01
 Coeff:     -0.269D-01 0.110D+01
 Gap=     0.532 Goal=   None    Shift=    0.000
 RMSDP=4.64D-09 MaxDP=1.18D-07 DE=-2.43D-11 OVMax= 4.85D-07

 SCF Done:  E(RHF) =  -279.505333050     A.U. after   14 cycles
            NFock= 14  Conv=0.46D-08     -V/T= 2.0023
 KE= 2.788594213449D+02 PE=-9.062251230518D+02 EE= 2.251781702457D+02
 Leave Link  502 at Sun Mar  6 18:46:35 2022, MaxMem= 16106127360 cpu:              55.8 elap:               3.6
 (Enter /sw/contrib/gaussian/g16/B01/g16/l801.exe)
 ExpMin= 2.53D-02 ExpMax= 1.53D+04 ExpMxC= 5.22D+02 IAcc=3 IRadAn=         5 AccDes= 0.00D+00
 HarFok:  IExCor=  205 AccDes= 0.00D+00 IRadAn=         5 IDoV=-2 UseB2=F ITyADJ=14
 ICtDFT= 12500011 ScaDFX=  1.000000  1.000000  1.000000  1.000000
 Largest valence mixing into a core orbital is  2.07D-04
 Largest core mixing into a valence orbital is  3.13D-05
 Range of M.O.s used for correlation:     5   207
 NBasis=   207 NAE=    16 NBE=    16 NFC=     4 NFV=     0
 NROrb=    203 NOA=    12 NOB=    12 NVA=   191 NVB=   191

 **** Warning!!: The largest alpha MO coefficient is  0.16507442D+02

 Leave Link  801 at Sun Mar  6 18:46:35 2022, MaxMem= 16106127360 cpu:               3.0 elap:               0.2
 (Enter /sw/contrib/gaussian/g16/B01/g16/l906.exe)
 Frozen-core derivative calculation, NFC=   4 NFV=   0.
 FulOut=F Deriv=T AODrv=T NAtomX=     5
   MMem=           0  MDisk=          12 MDiskD=          12
  W3Min=      811440 MinDsk=     2425030 NBas6D=         245
 NBas2D=       30762    NTT=       30135    LW2=     7400000
    MDV= 16105571546 MDiskM=      328644 NBas2p=       30759
 Disk-based method using ON**2 memory for 12 occupieds at a time.
 Permanent disk used for amplitudes=    11516536 words.
 Estimated scratch disk usage=   321863743 words.
 IMap=   1   2   3   4   5   6   7   8   9  10  11  12  13  14  15  16
 Actual    scratch disk usage=   310892607 words.
 JobTyp=1 Pass  1:  I=   5 to  16 NPSUse= 28 ParTrn=T ParDer=T DoDerP=T.
 (rs|ai) integrals will be sorted in core.
 Spin components of T(2) and E(2):
     alpha-alpha T2 =       0.3490618587D-01 E2=     -0.1247115308D+00
     alpha-beta  T2 =       0.1849743465D+00 E2=     -0.7003092198D+00
     beta-beta   T2 =       0.3490618587D-01 E2=     -0.1247115308D+00
 The integrals were generated   1 times.
 ANorm=    0.1120172629D+01
 E2 =    -0.9497322814D+00 EUMP2 =    -0.28045506533114D+03
 Leave Link  906 at Sun Mar  6 18:48:13 2022, MaxMem= 16106127360 cpu:            2716.1 elap:              97.1
 (Enter /sw/contrib/gaussian/g16/B01/g16/l1101.exe)
 Using compressed Sx but separate Hx and Fx, NAtomX=     5.
 Will process      6 centers per pass.
 Leave Link 1101 at Sun Mar  6 18:48:13 2022, MaxMem= 16106127360 cpu:               9.5 elap:               0.4
 (Enter /sw/contrib/gaussian/g16/B01/g16/l1102.exe)
 Leave Link 1102 at Sun Mar  6 18:48:13 2022, MaxMem= 16106127360 cpu:               0.5 elap:               0.0
 (Enter /sw/contrib/gaussian/g16/B01/g16/l1110.exe)
 Forming Gx(P) for the SCF density, NAtomX=     5.
 Integral derivatives from FoFJK, PRISM(SPDF).
 Do as many integral derivatives as possible in FoFJK.
 G2DrvN: MDV=   16106126844.
 G2DrvN: will do     6 centers at a time, making    1 passes.
 Calling FoFCou, ICntrl=  3107 FMM=F I1Cent=   0 AccDes= 0.00D+00.
 FoFJK:  IHMeth= 1 ICntrl=    3107 DoSepK=F KAlg= 0 I1Cent=           0 FoldK=F
 IRaf=         0 NMat=       1 IRICut=       1 DoRegI=T DoRafI=F ISym2E= 1 IDoP0=0 IntGTp=1.
 FoFCou: FMM=F IPFlag=           0 FMFlag=      100000 FMFlg1=           0
         NFxFlg=           0 DoJE=F BraDBF=F KetDBF=F FulRan=T
         wScrn=  0.000000 ICntrl=      3107 IOpCl=  0 I1Cent=           0 NGrid=           0
         NMat0=    1 NMatS0=      1 NMatT0=    0 NMatD0=    1 NMtDS0=    0 NMtDT0=    0
 Petite list used in FoFCou.
 End of G2Drv F.D. properties file   721 does not exist.
 End of G2Drv F.D. properties file   722 does not exist.
 End of G2Drv F.D. properties file   788 does not exist.
 Leave Link 1110 at Sun Mar  6 18:48:16 2022, MaxMem= 16106127360 cpu:              87.6 elap:               3.2
 (Enter /sw/contrib/gaussian/g16/B01/g16/l1002.exe)
 Minotr:  Closed shell wavefunction.
          IDoAtm=11111
          Frozen-core window.
          Direct CPHF calculation.
          Differentiating once with respect to electric field.
                with respect to dipole field.
          Differentiating once with respect to nuclear coordinates.
          Requested convergence is 1.0D-08 RMS, and 1.0D-07 maximum.
          Secondary convergence is 1.0D-12 RMS, and 1.0D-12 maximum.
          NewPWx=T KeepS1=T KeepF1=T KeepIn=T MapXYZ=F SortEE=F KeepMc=T.
 Keep R1 ints in memory in symmetry-blocked form, NReq=348888983.
 FoFCou: FMM=F IPFlag=           0 FMFlag=           0 FMFlg1=           0
         NFxFlg=           0 DoJE=F BraDBF=F KetDBF=F FulRan=T
         wScrn=  0.000000 ICntrl=       600 IOpCl=  0 I1Cent=           0 NGrid=           0
         NMat0=    1 NMatS0=  21528 NMatT0=    0 NMatD0=    1 NMtDS0=    0 NMtDT0=    0
 Petite list used in FoFCou.
          MDV=   16106127360 using IRadAn=       1.
          Solving linear equations simultaneously, MaxMat=       0.
          There are    18 degrees of freedom in the 1st order CPHF.  IDoFFX=6 NUNeed=    18.
     15 vectors produced by pass  0 Test12= 1.70D-14 5.56D-09 XBig12= 7.96D+00 1.22D+00.
 AX will form    15 AO Fock derivatives at one time.
     15 vectors produced by pass  1 Test12= 1.70D-14 5.56D-09 XBig12= 1.36D+00 2.28D-01.
     15 vectors produced by pass  2 Test12= 1.70D-14 5.56D-09 XBig12= 6.69D-02 5.64D-02.
     15 vectors produced by pass  3 Test12= 1.70D-14 5.56D-09 XBig12= 1.93D-03 1.06D-02.
     15 vectors produced by pass  4 Test12= 1.70D-14 5.56D-09 XBig12= 4.34D-05 1.28D-03.
     15 vectors produced by pass  5 Test12= 1.70D-14 5.56D-09 XBig12= 6.00D-07 1.18D-04.
     15 vectors produced by pass  6 Test12= 1.70D-14 5.56D-09 XBig12= 4.69D-09 1.20D-05.
     14 vectors produced by pass  7 Test12= 1.70D-14 5.56D-09 XBig12= 3.62D-11 7.67D-07.
      3 vectors produced by pass  8 Test12= 1.70D-14 5.56D-09 XBig12= 2.58D-13 6.31D-08.
      1 vectors produced by pass  9 Test12= 1.70D-14 5.56D-09 XBig12= 1.74D-15 7.10D-09.
 InvSVY:  IOpt=1 It=  1 EMax= 1.33D-15
 Solved reduced A of dimension   123 with    15 vectors.
 FullF1:  Do perturbations      1 to      18.
 Saving first derivative matrices.
 End of Minotr F.D. properties file   721 does not exist.
 End of Minotr F.D. properties file   722 does not exist.
 End of Minotr F.D. properties file   788 does not exist.
 Leave Link 1002 at Sun Mar  6 18:48:19 2022, MaxMem= 16106127360 cpu:              77.7 elap:               2.9
 (Enter /sw/contrib/gaussian/g16/B01/g16/l811.exe)
 MDV= 16106127360.
 Form MO integral derivatives with frozen-active canonical formalism.
 MOERI=1 MOERIx=1 NAtoms=     5 NAtomX=     5.
 Discarding MO integrals.
 MO basis two electron integral derivatives will not be stored on disk.
 IAlg= 3 DoFC=T DoPWx=T Debug=F.
 Frozen-core window:  NFC=   4 NFV=   0.
 Reordered first order wavefunction length =     18678272
 In DefCFB: NBatch=  1 ICI= 16 ICA=191 LFMax= 96
            Large arrays: LIAPS=   619940160 LIARS=   288257200 words.
 In StABat: MaxSiz= 55 MinSiz= 25 NAtomB=  5
 DoIAMN: NPSUse= 28.
 Leave Link  811 at Sun Mar  6 18:49:40 2022, MaxMem= 16106127360 cpu:            2262.1 elap:              80.9
 (Enter /sw/contrib/gaussian/g16/B01/g16/l804.exe)
 Frozen-core window:  NFC=   4 NFV=   0.
 Closed-shell transformation, MDV= 16106127360 ITran=4 ISComp=1.
 Semi-Direct transformation.
 ModeAB=           2 MOrb=            16 LenV=   16104919925
 LASXX=     67341636 LTotXX=    67341636 LenRXX=    67341636
 LTotAB=    68301760 MaxLAS=    99807120 LenRXY=    99807120
 NonZer=   134683272 LenScr=   202817536 LnRSAI=           0
 LnScr1=           0 LExtra=           0 Total=    369966292
 MaxDsk=          -1 SrtSym=           F ITran=            4
 DoSDTr:  NPSUse= 28
 JobTyp=0 Pass  1:  I=   1 to  16.
 (rs|ai) integrals will be sorted in core.
 Complete sort for first half transformation.
 First half transformation complete.
 Begin second half transformation for I=  10.
 Begin second half transformation for I=  10.
 Complete sort for second half transformation.
 Second half transformation complete.
 Spin components of T(2) and E(2):
     alpha-alpha T2 =       0.3490618587D-01 E2=     -0.1247115308D+00
     alpha-beta  T2 =       0.1849743465D+00 E2=     -0.7003092198D+00
     beta-beta   T2 =       0.3490618587D-01 E2=     -0.1247115308D+00
 ANorm=    0.1584163324D+01
 E2 =    -0.9497322814D+00 EUMP2 =    -0.28045506533114D+03
 Leave Link  804 at Sun Mar  6 18:49:58 2022, MaxMem= 16106127360 cpu:             488.8 elap:              17.6
 (Enter /sw/contrib/gaussian/g16/B01/g16/l1002.exe)
 Minotr:  Closed shell wavefunction.
          Computing MP2/KS-MP2 derivatives.
          Using Z-Vector for PSCF gradient.
          Skipping F1 and S1 gradient terms here.
          IDoAtm=11111
          Frozen-core window.
          Using MO integrals in the linear equations.
          Forming densities via direct SCF.
          Differentiating once with respect to electric field.
                with respect to dipole field.
          Differentiating once with respect to nuclear coordinates.
          Using symmetry in CPHF.
          Requested convergence is 1.0D-10 RMS, and 1.0D-09 maximum.
          NewPWx=F KeepS1=T KeepF1=T KeepIn=T MapXYZ=F SortEE=F KeepMc=T.
          MDV=   16106127360 using IRadAn=       5.
          Solving linear equations separately, MaxMat=       0.
          There are     1 degrees of freedom in the 1st order CPHF.  IDoFFX=0 NUNeed=     1.
 FoFJK:  IHMeth= 1 ICntrl=       0 DoSepK=F KAlg= 0 I1Cent=           0 FoldK=F
 IRaf=         0 NMat=       1 IRICut=       1 DoRegI=T DoRafI=F ISym2E= 0 IDoP0=0 IntGTp=1.
 FoFCou: FMM=F IPFlag=           0 FMFlag=      100000 FMFlg1=           0
         NFxFlg=           0 DoJE=F BraDBF=F KetDBF=F FulRan=T
         wScrn=  0.000000 ICntrl=         0 IOpCl=  0 I1Cent=           0 NGrid=           0
         NMat0=    1 NMatS0=      1 NMatT0=    0 NMatD0=    1 NMtDS0=    0 NMtDT0=    0
 Symmetry not used in FoFCou.
 LinEq1:  Iter=  0 NonCon=     1 RMS=6.62D-03 Max=1.71D-01 NDo=     1
 LinEq1:  Iter=  1 NonCon=     1 RMS=2.01D-03 Max=3.05D-02 NDo=     1
 LinEq1:  Iter=  2 NonCon=     1 RMS=8.92D-04 Max=1.45D-02 NDo=     1
 LinEq1:  Iter=  3 NonCon=     1 RMS=3.79D-04 Max=8.09D-03 NDo=     1
 LinEq1:  Iter=  4 NonCon=     1 RMS=1.37D-04 Max=1.65D-03 NDo=     1
 LinEq1:  Iter=  5 NonCon=     1 RMS=7.65D-05 Max=1.40D-03 NDo=     1
 LinEq1:  Iter=  6 NonCon=     1 RMS=2.45D-05 Max=3.03D-04 NDo=     1
 LinEq1:  Iter=  7 NonCon=     1 RMS=8.21D-06 Max=1.11D-04 NDo=     1
 LinEq1:  Iter=  8 NonCon=     1 RMS=4.03D-06 Max=6.21D-05 NDo=     1
 LinEq1:  Iter=  9 NonCon=     1 RMS=1.06D-06 Max=1.20D-05 NDo=     1
 LinEq1:  Iter= 10 NonCon=     1 RMS=2.35D-07 Max=2.91D-06 NDo=     1
 LinEq1:  Iter= 11 NonCon=     1 RMS=5.06D-08 Max=8.12D-07 NDo=     1
 LinEq1:  Iter= 12 NonCon=     1 RMS=1.19D-08 Max=1.73D-07 NDo=     1
 LinEq1:  Iter= 13 NonCon=     1 RMS=2.11D-09 Max=2.29D-08 NDo=     1
 LinEq1:  Iter= 14 NonCon=     1 RMS=4.39D-10 Max=5.84D-09 NDo=     1
 LinEq1:  Iter= 15 NonCon=     0 RMS=9.00D-11 Max=9.01D-10 NDo=     1
 Linear equations converged to 1.000D-10 1.000D-09 after    15 iterations.
 End of Minotr F.D. properties file   721 does not exist.
 End of Minotr F.D. properties file   722 does not exist.
 End of Minotr F.D. properties file   788 does not exist.
 Leave Link 1002 at Sun Mar  6 18:50:00 2022, MaxMem= 16106127360 cpu:              66.2 elap:               2.4
 (Enter /sw/contrib/gaussian/g16/B01/g16/l1102.exe)
 Use density number 2.
 Symmetrizing basis deriv contribution to polar:
 IMax=3 JMax=2 DiffMx= 0.00D+00
 Leave Link 1102 at Sun Mar  6 18:50:00 2022, MaxMem= 16106127360 cpu:               0.7 elap:               0.1
 (Enter /sw/contrib/gaussian/g16/B01/g16/l1110.exe)
 Forming Gx(P) for generalized density number  2 NAtomX=     5.
 Integral derivatives from FoFJK, PRISM(SPDF).
 Do as many integral derivatives as possible in FoFJK.
 G2DrvN: MDV=   16106126844.
 G2DrvN: will do     6 centers at a time, making    1 passes.
 Calling FoFCou, ICntrl=  3107 FMM=F I1Cent=   0 AccDes= 0.00D+00.
 FoFJK:  IHMeth= 1 ICntrl=    3107 DoSepK=F KAlg= 0 I1Cent=           0 FoldK=F
 IRaf=         0 NMat=       1 IRICut=       1 DoRegI=T DoRafI=F ISym2E= 1 IDoP0=0 IntGTp=1.
 FoFCou: FMM=F IPFlag=           0 FMFlag=      100000 FMFlg1=           0
         NFxFlg=           0 DoJE=F BraDBF=F KetDBF=F FulRan=T
         wScrn=  0.000000 ICntrl=      3107 IOpCl=  0 I1Cent=           0 NGrid=           0
         NMat0=    1 NMatS0=      1 NMatT0=    0 NMatD0=    1 NMtDS0=    0 NMtDT0=    0
 Petite list used in FoFCou.
 End of G2Drv F.D. properties file   721 does not exist.
 End of G2Drv F.D. properties file   722 does not exist.
 End of G2Drv F.D. properties file   788 does not exist.
 Leave Link 1110 at Sun Mar  6 18:50:03 2022, MaxMem= 16106127360 cpu:              86.7 elap:               3.1
 (Enter /sw/contrib/gaussian/g16/B01/g16/l1112.exe)
 MP22nd: MDV=   16106127360
 This link is doing NAtomX=     5 total of    18 degrees of freedom.
 Using ON3 I/O method in MakUI.
 Frozen-core window:  NFC=   4 NFV=   0.
 Using Ix for Sx.
 Use MO integrals over full window.
 Using OV2 memory method for fx*t*t/D, MaxI=    16 DoOO2=F NP=  28.
 R2 and R3 integrals will be kept in memory, NReq=   915591705.
 FoFCou: FMM=F IPFlag=           0 FMFlag=           0 FMFlg1=           0
         NFxFlg=           0 DoJE=F BraDBF=F KetDBF=F FulRan=T
         wScrn=  0.000000 ICntrl=       600 IOpCl=  0 I1Cent=           0 NGrid=           0
         NMat0=    1 NMatS0=      1 NMatT0=    0 NMatD0=    1 NMtDS0=    0 NMtDT0=    0
 Symmetry not used in FoFCou.
 DD1Dir will call FoFMem   1 times, MxPair=       272
 NAB=   136 NAA=     0 NBB=     0.
 Symmetry is being used.
 FoFJK:  IHMeth= 1 ICntrl=       0 DoSepK=F KAlg= 0 I1Cent=           0 FoldK=F
 IRaf=         0 NMat=      18 IRICut=      45 DoRegI=T DoRafI=T ISym2E= 2 IDoP0=3 IntGTp=3.
 Discarding MO integrals.
 Leave Link 1112 at Sun Mar  6 18:50:42 2022, MaxMem= 16106127360 cpu:            1055.8 elap:              38.2
 (Enter /sw/contrib/gaussian/g16/B01/g16/l601.exe)
 Copying SCF densities to generalized density rwf, IOpCl= 0 IROHF=0.

 **********************************************************************

            Population analysis using the MP2 Density.

 **********************************************************************

 Orbital symmetries:
       Occupied  (A') (A') (A') (A') (A') (A') (A') (A') (A') (A')
                 (A") (A') (A') (A") (A') (A")
       Virtual   (A') (A") (A') (A') (A") (A') (A') (A') (A") (A')
                 (A") (A') (A') (A') (A") (A') (A') (A") (A') (A')
                 (A') (A') (A') (A') (A") (A') (A') (A") (A') (A')
                 (A') (A") (A") (A') (A') (A') (A") (A') (A") (A')
                 (A") (A") (A') (A') (A") (A') (A') (A") (A') (A')
                 (A') (A") (A') (A') (A") (A') (A") (A') (A") (A')
                 (A') (A') (A") (A') (A') (A') (A") (A") (A') (A')
                 (A") (A') (A") (A") (A') (A') (A") (A') (A') (A')
                 (A") (A') (A') (A") (A') (A") (A") (A') (A') (A')
                 (A') (A') (A") (A") (A') (A') (A") (A") (A') (A")
                 (A') (A') (A") (A') (A") (A') (A') (A') (A") (A")
                 (A') (A') (A') (A') (A") (A') (A') (A') (A") (A')
                 (A") (A") (A') (A') (A") (A") (A') (A") (A') (A')
                 (A') (A') (A") (A') (A') (A") (A") (A') (A') (A")
                 (A') (A") (A') (A') (A') (A") (A') (A') (A') (A")
                 (A') (A') (A') (A") (A') (A") (A") (A') (A') (A")
                 (A') (A") (A') (A") (A") (A') (A") (A') (A") (A')
                 (A") (A") (A") (A') (A') (A") (A') (A') (A") (A')
                 (A') (A') (A') (A') (A') (A') (A') (A') (A') (A')
                 (A')
 The electronic state is 1-A'.
 Alpha  occ. eigenvalues --  -20.71958 -20.68744 -20.66875 -15.82602  -1.64404
 Alpha  occ. eigenvalues --   -1.50389  -1.29103  -0.95945  -0.83403  -0.75874
 Alpha  occ. eigenvalues --   -0.73973  -0.63389  -0.61830  -0.61805  -0.50487
 Alpha  occ. eigenvalues --   -0.49686
 Alpha virt. eigenvalues --    0.03495   0.06017   0.09521   0.10033   0.11983
 Alpha virt. eigenvalues --    0.12264   0.14905   0.15192   0.17778   0.18040
 Alpha virt. eigenvalues --    0.18982   0.21082   0.21655   0.24305   0.24639
 Alpha virt. eigenvalues --    0.26904   0.31074   0.31637   0.33829   0.34393
 Alpha virt. eigenvalues --    0.34705   0.39261   0.44667   0.48742   0.50496
 Alpha virt. eigenvalues --    0.51843   0.54411   0.56123   0.59849   0.61920
 Alpha virt. eigenvalues --    0.63855   0.68962   0.71785   0.72378   0.74300
 Alpha virt. eigenvalues --    0.76410   0.76747   0.79556   0.80634   0.83852
 Alpha virt. eigenvalues --    0.84332   0.85196   0.88561   0.90855   0.93219
 Alpha virt. eigenvalues --    0.94761   0.95364   1.01808   1.03148   1.06357
 Alpha virt. eigenvalues --    1.06511   1.09432   1.14379   1.15557   1.16972
 Alpha virt. eigenvalues --    1.22334   1.22746   1.24640   1.35175   1.35794
 Alpha virt. eigenvalues --    1.37177   1.46899   1.47971   1.50504   1.53954
 Alpha virt. eigenvalues --    1.59452   1.59736   1.60587   1.62918   1.69629
 Alpha virt. eigenvalues --    1.73955   1.80018   1.82957   1.88839   1.89478
 Alpha virt. eigenvalues --    1.93089   1.97962   1.98260   2.05141   2.12310
 Alpha virt. eigenvalues --    2.12796   2.16266   2.18771   2.24395   2.26106
 Alpha virt. eigenvalues --    2.29399   2.35273   2.36860   2.38389   2.40181
 Alpha virt. eigenvalues --    2.43457   2.47173   2.47784   2.52986   2.53635
 Alpha virt. eigenvalues --    2.55044   2.55814   2.61563   2.63262   2.67292
 Alpha virt. eigenvalues --    2.67482   2.75581   2.80952   2.82083   2.83867
 Alpha virt. eigenvalues --    2.91888   2.98560   3.04886   3.05122   3.11518
 Alpha virt. eigenvalues --    3.11798   3.17158   3.21456   3.31006   3.32977
 Alpha virt. eigenvalues --    3.35924   3.47540   3.67823   3.86850   3.91532
 Alpha virt. eigenvalues --    4.17305   4.21875   4.22396   4.26780   4.36889
 Alpha virt. eigenvalues --    4.49928   4.52312   4.55483   4.59244   4.69511
 Alpha virt. eigenvalues --    4.79332   4.89655   4.91386   4.92716   4.99516
 Alpha virt. eigenvalues --    5.00463   5.10453   5.12103   5.16215   5.22706
 Alpha virt. eigenvalues --    5.24491   5.31272   5.34144   5.34819   5.54611
 Alpha virt. eigenvalues --    5.64493   5.70581   5.88874   5.99502   6.26451
 Alpha virt. eigenvalues --    6.30106   6.36280   6.37527   6.59617   6.65815
 Alpha virt. eigenvalues --    6.66126   6.68908   6.72676   6.79619   6.80397
 Alpha virt. eigenvalues --    6.85043   6.96825   7.00812   7.06326   7.06874
 Alpha virt. eigenvalues --    7.13556   7.17458   7.17597   7.18935   7.24207
 Alpha virt. eigenvalues --    7.24370   7.27249   7.34935   7.39323   7.41978
 Alpha virt. eigenvalues --    7.44211   7.45897   7.55859   7.66304   7.66692
 Alpha virt. eigenvalues --    7.78373   7.87635   7.95224   8.06642   8.29494
 Alpha virt. eigenvalues --    8.48640   8.64676  13.61358  14.64838  15.00766
 Alpha virt. eigenvalues --   15.77081
          Condensed to atoms (all electrons):
               1          2          3          4          5
     1  H    0.564728   0.129516   0.023164  -0.000421  -0.003156
     2  O    0.129516   8.393172  -0.227889  -0.001237  -0.009792
     3  O    0.023164  -0.227889   8.369560  -0.169145  -0.033655
     4  N   -0.000421  -0.001237  -0.169145   7.136189  -0.120354
     5  O   -0.003156  -0.009792  -0.033655  -0.120354   8.362290
 Mulliken charges:
               1
     1  H    0.286169
     2  O   -0.283770
     3  O    0.037965
     4  N    0.154969
     5  O   -0.195333
 Sum of Mulliken charges =  -0.00000
 Mulliken charges with hydrogens summed into heavy atoms:
               1
     2  O    0.002399
     3  O    0.037965
     4  N    0.154969
     5  O   -0.195333
 APT charges:
               1
     1  H    0.273959
     2  O   -0.302659
     3  O   -0.309130
     4  N    0.641139
     5  O   -0.303309
 Sum of APT charges =  -0.00000
 APT charges with hydrogens summed into heavy atoms:
               1
     2  O   -0.028700
     3  O   -0.309130
     4  N    0.641139
     5  O   -0.303309
 Electronic spatial extent (au):  <R**2>=            207.2592
 Charge=             -0.0000 electrons
 Dipole moment (field-independent basis, Debye):
    X=              0.0468    Y=             -1.1080    Z=              0.0000  Tot=              1.1090
 Quadrupole moment (field-independent basis, Debye-Ang):
   XX=            -23.4009   YY=            -22.9196   ZZ=            -21.9524
   XY=             -1.9881   XZ=              0.0000   YZ=              0.0000
 Traceless Quadrupole moment (field-independent basis, Debye-Ang):
   XX=             -0.6433   YY=             -0.1620   ZZ=              0.8053
   XY=             -1.9881   XZ=              0.0000   YZ=              0.0000
 Octapole moment (field-independent basis, Debye-Ang**2):
  XXX=              2.5053  YYY=              0.2535  ZZZ=              0.0000  XYY=              2.3794
  XXY=             -2.8233  XXZ=              0.0000  XZZ=             -0.6093  YZZ=             -0.7013
  YYZ=              0.0000  XYZ=              0.0000
 Hexadecapole moment (field-independent basis, Debye-Ang**3):
 XXXX=           -127.1495 YYYY=            -94.8577 ZZZZ=            -18.0772 XXXY=            -21.5498
 XXXZ=              0.0000 YYYX=            -19.8303 YYYZ=              0.0000 ZZZX=              0.0000
 ZZZY=              0.0000 XXYY=            -35.6244 XXZZ=            -24.3780 YYZZ=            -18.6039
 XXYZ=              0.0000 YYXZ=              0.0000 ZZXY=             -5.9113
 N-N= 1.226821984114D+02 E-N=-9.069119303298D+02  KE= 2.801785000485D+02
 Symmetry A'   KE= 2.663305827737D+02
 Symmetry A"   KE= 1.384791727476D+01
  Exact polarizability:  31.017   4.141  29.963   0.000   0.000  17.656
 Approx polarizability:  24.642   0.545  27.793  -0.000  -0.000  15.538
 No NMR shielding tensors so no spin-rotation constants.
 Leave Link  601 at Sun Mar  6 18:50:42 2022, MaxMem= 16106127360 cpu:               4.4 elap:               0.2
 (Enter /sw/contrib/gaussian/g16/B01/g16/l701.exe)
 ... and contract with generalized density number  2.
 Compute integral second derivatives.
 Leave Link  701 at Sun Mar  6 18:50:42 2022, MaxMem= 16106127360 cpu:               6.1 elap:               0.2
 (Enter /sw/contrib/gaussian/g16/B01/g16/l702.exe)
 L702 exits ... SP integral derivatives will be done elsewhere.
 Leave Link  702 at Sun Mar  6 18:50:42 2022, MaxMem= 16106127360 cpu:               0.6 elap:               0.0
 (Enter /sw/contrib/gaussian/g16/B01/g16/l703.exe)
 Integral derivatives from FoFJK, PRISM(SPDF).
 Compute integral second derivatives, UseDBF=F ICtDFT=           0.
 Calling FoFJK, ICntrl=  10100127 FMM=F ISym2X=1 I1Cent= 0 IOpClX= 0 NMat=1 NMatS=1 NMatT=0.
 FoFJK:  IHMeth= 1 ICntrl=10100127 DoSepK=F KAlg= 0 I1Cent=           0 FoldK=F
 IRaf=         0 NMat=       1 IRICut=       1 DoRegI=T DoRafI=F ISym2E= 1 IDoP0=0 IntGTp=1.
 FoFCou: FMM=F IPFlag=           0 FMFlag=      100000 FMFlg1=         800
         NFxFlg=           0 DoJE=F BraDBF=F KetDBF=F FulRan=T
         wScrn=  0.000000 ICntrl=  10100127 IOpCl=  0 I1Cent=           0 NGrid=           0
         NMat0=    1 NMatS0=      1 NMatT0=    0 NMatD0=    1 NMtDS0=    0 NMtDT0=    0
 Petite list used in FoFCou.
 Leave Link  703 at Sun Mar  6 18:50:58 2022, MaxMem= 16106127360 cpu:             447.5 elap:              16.0
 (Enter /sw/contrib/gaussian/g16/B01/g16/l716.exe)
 Dipole        = 1.83983011D-02-4.35933960D-01 0.00000000D+00
 Polarizability= 3.10174975D+01 4.14062849D+00 2.99626242D+01
                 0.00000000D+00 0.00000000D+00 1.76555347D+01
 Full mass-weighted force constant matrix:
 Low frequencies ---    0.0001    0.0008    0.0012   11.3919   42.4537   46.6387
 Low frequencies ---  400.6758  454.5855  611.1564
 Diagonal vibrational polarizability:
        7.0540730       9.9555136       7.1245618
 Harmonic frequencies (cm**-1), IR intensities (KM/Mole), Raman scattering
 activities (A**4/AMU), depolarization ratios for plane and unpolarized
 incident light, reduced masses (AMU), force constants (mDyne/A),
 and normal coordinates:
                      1                      2                      3
                     A'                     A"                     A"
 Frequencies --    400.6102               453.8658               609.6373
 Red. masses --      7.1828                 5.4500                 1.2472
 Frc consts  --      0.6792                 0.6615                 0.2731
 IR Inten    --      7.6506                14.3470                72.5088
  Atom  AN      X      Y      Z        X      Y      Z        X      Y      Z
     1   1    -0.72  -0.26  -0.00     0.00   0.00  -0.83     0.00   0.00   0.99
     2   8    -0.33  -0.31   0.00     0.00   0.00   0.21     0.00   0.00  -0.03
     3   8    -0.06   0.08  -0.00     0.00  -0.00  -0.32     0.00   0.00  -0.04
     4   7     0.06   0.10   0.00    -0.00  -0.00   0.37    -0.00  -0.00   0.09
     5   8     0.39   0.17  -0.00    -0.00  -0.00  -0.17    -0.00  -0.00  -0.08
                      4                      5                      6
                     A'                     A'                     A'
 Frequencies --    712.5331               835.8483               975.2854
 Red. masses --     13.6467                12.1929                10.6345
 Frc consts  --      4.0821                 5.0189                 5.9598
 IR Inten    --    215.4296                30.4986                10.7678
  Atom  AN      X      Y      Z        X      Y      Z        X      Y      Z
     1   1    -0.32  -0.01  -0.00     0.45  -0.16   0.00    -0.58  -0.03   0.00
     2   8    -0.02  -0.08   0.00     0.52  -0.21  -0.00     0.20  -0.18  -0.00
     3   8     0.38   0.58   0.00    -0.38  -0.01   0.00    -0.37   0.44  -0.00
     4   7    -0.42  -0.46  -0.00    -0.43  -0.06   0.00     0.40   0.04   0.00
     5   8     0.02  -0.10   0.00     0.21   0.28  -0.00    -0.13  -0.29  -0.00
                      7                      8                      9
                     A'                     A'                     A'
 Frequencies --   1455.2178              1575.1245              3297.6205
 Red. masses --      1.3667                 4.9770                 1.0631
 Frc consts  --      1.7052                 7.2752                 6.8114
 IR Inten    --     82.7295               153.6346                44.6493
  Atom  AN      X      Y      Z        X      Y      Z        X      Y      Z
     1   1     0.97  -0.19   0.00     0.83  -0.17   0.00     0.14   0.99   0.00
     2   8    -0.07  -0.05  -0.00    -0.03  -0.03  -0.00    -0.01  -0.06  -0.00
     3   8    -0.03   0.05   0.00     0.03   0.06   0.00     0.00  -0.00   0.00
     4   7     0.07  -0.07   0.00    -0.21   0.34   0.00    -0.00   0.00   0.00
     5   8    -0.03   0.06  -0.00     0.13  -0.32  -0.00     0.00  -0.00  -0.00

 -------------------
 - Thermochemistry -
 -------------------
 Temperature   298.150 Kelvin.  Pressure   1.00000 Atm.
 Atom     1 has atomic number  1 and mass   1.00783
 Atom     2 has atomic number  8 and mass  15.99491
 Atom     3 has atomic number  8 and mass  15.99491
 Atom     4 has atomic number  7 and mass  14.00307
 Atom     5 has atomic number  8 and mass  15.99491
 Molecular mass:    62.99564 amu.
 Principal axes and moments of inertia in atomic units:
                           1         2         3
     Eigenvalues --    84.61185 222.56473 307.17659
           X            0.79612  -0.60514   0.00000
           Y            0.60514   0.79612   0.00000
           Z            0.00000   0.00000   1.00000
 This molecule is an asymmetric top.
 Rotational symmetry number  1.
 Rotational temperatures (Kelvin)      1.02366     0.38916     0.28197
 Rotational constants (GHZ):          21.32965     8.10884     5.87526
 Zero-point vibrational energy      61701.8 (Joules/Mol)
                                   14.74710 (Kcal/Mol)
 Warning -- explicit consideration of   3 degrees of freedom as
           vibrations may cause significant error
 Vibrational temperatures:    576.39   653.01   877.13  1025.18  1202.60
          (Kelvin)           1403.22  2093.73  2266.25  4744.54
 
 Zero-point correction=                           0.023501 (Hartree/Particle)
 Thermal correction to Energy=                    0.027284
 Thermal correction to Enthalpy=                  0.028228
 Thermal correction to Gibbs Free Energy=        -0.002366
 Sum of electronic and zero-point Energies=           -280.431564
 Sum of electronic and thermal Energies=              -280.427781
 Sum of electronic and thermal Enthalpies=            -280.426837
 Sum of electronic and thermal Free Energies=         -280.457431
 
                     E (Thermal)             CV                S
                      KCal/Mol        Cal/Mol-Kelvin    Cal/Mol-Kelvin
 Total                   17.121             11.743             64.390
 Electronic               0.000              0.000              0.000
 Translational            0.889              2.981             38.341
 Rotational               0.889              2.981             23.274
 Vibrational             15.344              5.782              2.776
 Vibration     1          0.766              1.469              0.960
 Vibration     2          0.812              1.352              0.784
 Vibration     3          0.969              1.011              0.433
                       Q            Log10(Q)             Ln(Q)
 Total Bot       0.122501D+02          1.088140          2.505535
 Total V=0       0.790381D+12         11.897836         27.395781
 Vib (Bot)       0.228948D-10        -10.640263        -24.500111
 Vib (Bot)    1  0.444713D+00         -0.351920         -0.810327
 Vib (Bot)    2  0.376649D+00         -0.424064         -0.976443
 Vib (Bot)    3  0.242501D+00         -0.615287         -1.416750
 Vib (V=0)       0.147718D+01          0.169433          0.390134
 Vib (V=0)    1  0.116916D+01          0.067872          0.156282
 Vib (V=0)    2  0.112599D+01          0.051535          0.118663
 Vib (V=0)    3  0.105570D+01          0.023542          0.054208
 Electronic      0.100000D+01          0.000000          0.000000
 Translational   0.196526D+08          7.293420         16.793719
 Rotational      0.272260D+05          4.434983         10.211927
 
                                                                title
                                                             IR Spectrum
 
     3                                                                  1   1                                                        
     2                                                                  5   4                  9    8    7   6     4 4               
     9                                                                  7   5                  7    3    1   1     5 0               
     8                                                                  5   5                  5    6    3   0     4 1               
 
     X                                                                  X   X                  X    X    X   X     X X               
     X                                                                  X   X                       X    X   X                       
     X                                                                  X   X                       X    X   X                       
     X                                                                  X   X                            X   X                       
                                                                        X   X                            X   X                       
                                                                        X   X                            X   X                       
                                                                        X   X                            X   X                       
                                                                        X   X                            X                           
                                                                        X                                X                           
                                                                        X                                X                           
                                                                        X                                X                           
                                                                        X                                X                           
                                                                        X                                X                           
                                                                        X                                X                           
                                                                                                         X                           
                                                                                                         X                           
                                                                                                         X                           
                                                                                                         X                           
                                                                                                         X                           
                                                                                                         X                           
 
 ***** Axes restored to original set *****
 -------------------------------------------------------------------
 Center     Atomic                   Forces (Hartrees/Bohr)
 Number     Number              X              Y              Z
 -------------------------------------------------------------------
      1        1           0.000736126   -0.000000000    0.011907890
      2        8          -0.000293573   -0.000000000   -0.011348782
      3        8          -0.000320129   -0.000000000   -0.000944113
      4        7           0.000385475   -0.000000000    0.000845880
      5        8          -0.000507899   -0.000000000   -0.000460875
 -------------------------------------------------------------------
 Cartesian Forces:  Max     0.011907890 RMS     0.004270434
 -----------------------------------------------------------------------------------------------
                       Internal Coordinate Forces (Hartree/Bohr or radian)
  Cent   Atom   N1       Length/X         N2         Alpha/Y        N3         Beta/Z          J
 -----------------------------------------------------------------------------------------------
      1  H 
      2  O        1  -0.011908(     1)
      3  O        2  -0.000538(     2)      1  -0.001392(     5)
      4  N        3  -0.000388(     3)      2  -0.000131(     6)      1   0.000000(     8)     0
      5  O        4   0.000660(     4)      3  -0.000424(     7)      2   0.000000(     9)     0
 -----------------------------------------------------------------------------------------------
 Internal  Forces:  Max     0.011907890 RMS     0.004011209
 Force constants in Cartesian coordinates: 
                1             2             3             4             5 
      1  0.756842D-01
      2  0.000000D+00  0.126125D-01
      3  0.249856D-01  0.000000D+00  0.390147D+00
      4 -0.569359D-01  0.000000D+00 -0.373413D-02  0.285386D+00
      5  0.000000D+00 -0.869804D-02  0.000000D+00  0.000000D+00  0.186207D-01
      6  0.303558D-01  0.000000D+00 -0.373674D+00 -0.133240D-01  0.000000D+00
      7 -0.241415D-01  0.000000D+00 -0.166801D-01 -0.169845D+00  0.000000D+00
      8  0.000000D+00 -0.426906D-02  0.000000D+00  0.000000D+00 -0.194509D-01
      9 -0.420282D-01  0.000000D+00 -0.200663D-01  0.979043D-02  0.000000D+00
     10 -0.599104D-02  0.000000D+00  0.605151D-02 -0.843562D-01  0.000000D+00
     11  0.000000D+00  0.800172D-02  0.000000D+00  0.000000D+00  0.202273D-01
     12 -0.201053D-01  0.000000D+00  0.121116D-01  0.111828D-01  0.000000D+00
     13  0.113843D-01  0.000000D+00 -0.106228D-01  0.257515D-01  0.000000D+00
     14  0.000000D+00 -0.764710D-02  0.000000D+00  0.000000D+00 -0.106991D-01
     15  0.679215D-02  0.000000D+00 -0.851858D-02 -0.391517D-02  0.000000D+00
                6             7             8             9            10 
      6  0.475932D+00
      7 -0.897556D-01  0.301942D+00
      8  0.000000D+00  0.000000D+00  0.418405D-01
      9 -0.960257D-01  0.808176D-01  0.000000D+00  0.315902D+00
     10  0.403182D-01 -0.143393D+00  0.000000D+00 -0.355248D-01  0.554678D+00
     11  0.000000D+00  0.000000D+00 -0.485038D-01  0.000000D+00  0.000000D+00
     12 -0.108166D-01  0.158125D-01  0.000000D+00 -0.249972D-01  0.243898D+00
     13  0.324056D-01  0.354375D-01  0.000000D+00 -0.130551D-01 -0.320938D+00
     14  0.000000D+00  0.000000D+00  0.303833D-01  0.000000D+00  0.000000D+00
     15  0.458409D-02  0.980566D-02  0.000000D+00 -0.174812D+00 -0.254743D+00
               11            12            13            14            15 
     11  0.579998D-01
     12  0.000000D+00  0.448571D+00
     13  0.000000D+00 -0.250788D+00  0.248365D+00
     14 -0.377250D-01  0.000000D+00  0.000000D+00  0.256879D-01
     15  0.000000D+00 -0.424869D+00  0.242060D+00  0.000000D+00  0.603616D+00
 Force constants in internal coordinates: 
                1             2             3             4             5 
      1  0.390147D+00
      2  0.239267D-01  0.256711D+00
      3  0.552788D-02  0.167363D-01  0.207780D+00
      4 -0.128450D-01  0.231912D-01  0.149620D+00  0.721617D+00
      5  0.479833D-01  0.541580D-01 -0.265957D-01  0.222783D-01  0.248115D+00
      6  0.149065D-01  0.203316D-01  0.918296D-01  0.116130D-01 -0.115464D-01
      7  0.102021D-01 -0.751655D-01  0.122220D+00  0.118567D+00 -0.259471D-01
      8  0.000000D+00  0.000000D+00  0.000000D+00  0.000000D+00  0.000000D+00
      9  0.000000D+00  0.000000D+00  0.000000D+00  0.000000D+00  0.000000D+00
                6             7             8             9 
      6  0.521274D+00
      7  0.634226D-01  0.666056D+00
      8  0.000000D+00  0.000000D+00  0.220655D-01
      9  0.000000D+00  0.000000D+00  0.292378D-01  0.110113D+00
 Leave Link  716 at Sun Mar  6 18:50:58 2022, MaxMem= 16106127360 cpu:               1.2 elap:               0.1
 (Enter /sw/contrib/gaussian/g16/B01/g16/l103.exe)

 GradGradGradGradGradGradGradGradGradGradGradGradGradGradGradGradGradGrad
 Berny optimization.
 Search for a local minimum.
 Step number   1 out of a maximum of    2
 All quantities printed in internal units (Hartrees-Bohrs-Radians)
 Second derivative matrix not updated -- analytic derivatives used.
 The second derivative matrix:
                          r1        r2        r3        r4        a1
           r1           0.39015
           r2           0.02393   0.25671
           r3           0.00553   0.01674   0.20778
           r4          -0.01284   0.02319   0.14962   0.72162
           a1           0.04798   0.05416  -0.02660   0.02228   0.24812
           a2           0.01491   0.02033   0.09183   0.01161  -0.01155
           a3           0.01020  -0.07517   0.12222   0.11857  -0.02595
           d1           0.00000   0.00000   0.00000   0.00000   0.00000
           d2           0.00000   0.00000   0.00000   0.00000   0.00000
                          a2        a3        d1        d2
           a2           0.52127
           a3           0.06342   0.66606
           d1           0.00000   0.00000   0.02207
           d2           0.00000   0.00000   0.02924   0.11011
 ITU=  0
     Eigenvalues ---    0.01324   0.11894   0.12359   0.20407   0.26315
     Eigenvalues ---    0.41047   0.51393   0.60895   0.88754
 Angle between quadratic step and forces=   8.70 degrees.
 Linear search not attempted -- first point.
 Variable       Old X    -DE/DX   Delta X   Delta X   Delta X     New X
                                 (Linear)    (Quad)   (Total)
    r1        1.89098  -0.01191   0.00000  -0.03054  -0.03054   1.86045
    r2        2.69614  -0.00054   0.00000   0.00080   0.00080   2.69694
    r3        2.60992  -0.00039   0.00000  -0.00215  -0.00215   2.60776
    r4        2.25782   0.00066   0.00000   0.00077   0.00077   2.25859
    a1        1.75642  -0.00139   0.00000  -0.00013  -0.00013   1.75629
    a2        1.97463  -0.00013   0.00000   0.00094   0.00094   1.97557
    a3        1.99550  -0.00042   0.00000   0.00009   0.00009   1.99559
    d1        0.00000   0.00000   0.00000   0.00000   0.00000   0.00000
    d2        0.00000   0.00000   0.00000   0.00000   0.00000   0.00000
         Item               Value     Threshold  Converged?
 Maximum Force            0.011908     0.000450     NO 
 RMS     Force            0.004011     0.000300     NO 
 Maximum Displacement     0.030537     0.001800     NO 
 RMS     Displacement     0.010216     0.001200     NO 
 Predicted change in Energy=-1.822819D-04
                       ----------------------------
                       ! Non-Optimized Parameters !
                       ! (Angstroms and Degrees)  !
 ----------------------                            ----------------------
 !      Name          Value   Derivative information (Atomic Units)     !
 ------------------------------------------------------------------------
 !       r1          0.9845   -DE/DX =   -0.0119                        !
 !       r2          1.4272   -DE/DX =   -0.0005                        !
 !       r3          1.38     -DE/DX =   -0.0004                        !
 !       r4          1.1952   -DE/DX =    0.0007                        !
 !       a1        100.6283   -DE/DX =   -0.0014                        !
 !       a2        113.1916   -DE/DX =   -0.0001                        !
 !       a3        114.3388   -DE/DX =   -0.0004                        !
 !       d1          0.0      -DE/DX =    0.0                           !
 !       d2          0.0      -DE/DX =    0.0                           !
 ------------------------------------------------------------------------
 GradGradGradGradGradGradGradGradGradGradGradGradGradGradGradGradGradGrad

 Leave Link  103 at Sun Mar  6 18:50:58 2022, MaxMem= 16106127360 cpu:               0.5 elap:               0.0
 (Enter /sw/contrib/gaussian/g16/B01/g16/l9999.exe)

 ----------------------------------------------------------------------

 Electric dipole moment (input orientation):
 (Debye = 10**-18 statcoulomb cm , SI units = C m)
                  (au)            (Debye)         (10**-30 SI)
   Tot        0.436322D+00      0.110902D+01      0.369929D+01
   x         -0.109360D+00     -0.277966D+00     -0.927193D+00
   y          0.000000D+00      0.000000D+00      0.000000D+00
   z         -0.422395D+00     -0.107362D+01     -0.358121D+01

 Dipole polarizability, Alpha (input orientation).
 (esu units = cm**3 , SI units = C**2 m**2 J**-1)
 Alpha(0;0):
               (au)            (10**-24 esu)      (10**-40 SI)
   iso        0.262119D+02      0.388420D+01      0.432176D+01
   aniso      0.147307D+02      0.218287D+01      0.242877D+01
   xx         0.292740D+02      0.433796D+01      0.482663D+01
   yx         0.000000D+00      0.000000D+00      0.000000D+00
   yy         0.176555D+02      0.261628D+01      0.291100D+01
   zx        -0.399301D+01     -0.591703D+00     -0.658359D+00
   zy         0.000000D+00      0.000000D+00      0.000000D+00
   zz         0.317061D+02      0.469836D+01      0.522764D+01

 ----------------------------------------------------------------------

 Dipole orientation:
     1          0.00000000         -0.00000000         -0.00000000
     8         -0.47395762         -0.00000000         -1.83062434
     8          1.96656634         -0.00000000         -2.97649606
     7          3.91488638         -0.00000000         -1.23991715
     8          3.24055606          0.00000000          0.91485504

 Electric dipole moment (dipole orientation):
 (Debye = 10**-18 statcoulomb cm , SI units = C m)
                  (au)            (Debye)         (10**-30 SI)
   Tot        0.436322D+00      0.110902D+01      0.369929D+01
   x          0.000000D+00      0.000000D+00      0.000000D+00
   y          0.000000D+00      0.000000D+00      0.000000D+00
   z          0.436322D+00      0.110902D+01      0.369929D+01

 Dipole polarizability, Alpha (dipole orientation).
 (esu units = cm**3 , SI units = C**2 m**2 J**-1)
 Alpha(0;0):
               (au)            (10**-24 esu)      (10**-40 SI)
   iso        0.262119D+02      0.388420D+01      0.432176D+01
   aniso      0.147307D+02      0.218287D+01      0.242877D+01
   xx         0.313645D+02      0.464774D+01      0.517131D+01
   yx         0.000000D+00      0.000000D+00      0.000000D+00
   yy         0.176555D+02      0.261628D+01      0.291100D+01
   zx         0.408146D+01      0.604810D+00      0.672942D+00
   zy         0.000000D+00      0.000000D+00      0.000000D+00
   zz         0.296156D+02      0.438858D+01      0.488296D+01

 ----------------------------------------------------------------------
 1\1\GINC-N2109\Freq\RMP2-FC\Aug-CC-pVTZ\H1N1O3\CGAVINH\06-Mar-2022\1\\
 #p freq mp2/aug-cc-pvtz density=current\\title\\0,1\H\O,1,r1\O,2,r2,1,
 a1\N,3,r3,2,a2,1,d1,0\O,4,r4,3,a3,2,d2,0\\r1=1.00066575\r2=1.42673666\
 r3=1.38110764\r4=1.19478846\a1=100.6355057\a2=113.13777052\a3=114.3339
 2022\d1=0.\d2=0.\\Version=ES64L-G16RevB.01\State=1-A'\HF=-279.505333\M
 P2=-280.4550653\RMSD=4.638e-09\RMSF=4.270e-03\ZeroPoint=0.023501\Therm
 al=0.027284\Dipole=-0.1093601,0.,-0.4223947\DipoleDeriv=0.322806,0.,0.
 0356352,0.,0.2957153,0.,-0.0321011,0.,0.2033563,-0.5295462,0.,0.281323
 8,0.,-0.2521348,0.,-0.0950317,0.,-0.1262961,0.0028818,0.,0.3326279,0.,
 -0.0105552,0.,0.4393365,0.,-0.9197175,0.1974239,0.,-0.1369746,0.,0.012
 2733,0.,-0.6673649,0.,1.7137204,0.0064345,0.,-0.5126124,0.,-0.0452986,
 0.,0.3551611,0.,-0.8710631\Polar=29.273984,0.,17.6555347,-3.9930127,0.
 ,31.7061377\Quadrupole=0.1433067,0.5986908,-0.7419976,0.,1.4215901,0.\
 PG=CS [SG(H1N1O3)]\NImag=0\\0.07568418,0.,0.01261248,0.02498557,0.,0.3
 9014719,-0.05693590,0.,-0.00373413,0.28538577,0.,-0.00869804,0.,0.,0.0
 1862069,0.03035580,0.,-0.37367383,-0.01332397,0.,0.47593206,-0.0241415
 4,0.,-0.01668012,-0.16984511,0.,-0.08975563,0.30194167,0.,-0.00426906,
 0.,0.,-0.01945091,0.,0.,0.04184052,-0.04202818,0.,-0.02006634,0.009790
 43,0.,-0.09602573,0.08081763,0.,0.31590171,-0.00599104,0.,0.00605151,-
 0.08435624,0.,0.04031821,-0.14339256,0.,-0.03552481,0.55467828,0.,0.00
 800172,0.,0.,0.02022733,0.,0.,-0.04850383,0.,0.,0.05799981,-0.02010535
 ,0.,0.01211157,0.01118284,0.,-0.01081659,0.01581245,0.,-0.02499715,0.2
 4389771,0.,0.44857095,0.01138430,0.,-0.01062283,0.02575148,0.,0.032405
 58,0.03543754,0.,-0.01305507,-0.32093844,0.,-0.25078765,0.24836513,0.,
 -0.00764710,0.,0.,-0.01069906,0.,0.,0.03038328,0.,0.,-0.03772503,0.,0.
 ,0.02568791,0.00679215,0.,-0.00851858,-0.00391517,0.,0.00458409,0.0098
 0566,0.,-0.17481248,-0.25474262,0.,-0.42486877,0.24205997,0.,0.6036157
 4\\-0.00073613,0.,-0.01190789,0.00029357,0.,0.01134878,0.00032013,0.,0
 .00094411,-0.00038547,0.,-0.00084588,0.00050790,0.,0.00046087\\\@


 A BIRD IN THE HAND IS SAFER THAN ONE OVERHEAD.

                       -- NEWTON'S SEVENTH LAW
 Job cpu time:       0 days  2 hours  3 minutes 16.3 seconds.
 Elapsed time:       0 days  0 hours  4 minutes 27.7 seconds.
 File lengths (MBytes):  RWF=   7239 Int=      0 D2E=      0 Chk=      8 Scr=      1
 Normal termination of Gaussian 16 at Sun Mar  6 18:50:59 2022.
