 Entering Gaussian System, Link 0=g16
 Input=hoono_d2_178p0922.gjf
 Output=hoono_d2_178p0922.log
 Initial command:
 /sw/contrib/gaussian/g16/B01/g16/l1.exe "/scr/Gau-6377.inp" -scrdir="/scr/"
 Entering Link 1 = /sw/contrib/gaussian/g16/B01/g16/l1.exe PID=      6378.
  
 Copyright (c) 1988-2017, Gaussian, Inc.  All Rights Reserved.
  
 This is part of the Gaussian(R) 16 program.  It is based on
 the Gaussian(R) 09 system (copyright 2009, Gaussian, Inc.),
 the Gaussian(R) 03 system (copyright 2003, Gaussian, Inc.),
 the Gaussian(R) 98 system (copyright 1998, Gaussian, Inc.),
 the Gaussian(R) 94 system (copyright 1995, Gaussian, Inc.),
 the Gaussian 92(TM) system (copyright 1992, Gaussian, Inc.),
 the Gaussian 90(TM) system (copyright 1990, Gaussian, Inc.),
 the Gaussian 88(TM) system (copyright 1988, Gaussian, Inc.),
 the Gaussian 86(TM) system (copyright 1986, Carnegie Mellon
 University), and the Gaussian 82(TM) system (copyright 1983,
 Carnegie Mellon University). Gaussian is a federally registered
 trademark of Gaussian, Inc.
  
 This software contains proprietary and confidential information,
 including trade secrets, belonging to Gaussian, Inc.
  
 This software is provided under written license and may be
 used, copied, transmitted, or stored only in accord with that
 written license.
  
 The following legend is applicable only to US Government
 contracts under FAR:
  
                    RESTRICTED RIGHTS LEGEND
  
 Use, reproduction and disclosure by the US Government is
 subject to restrictions as set forth in subparagraphs (a)
 and (c) of the Commercial Computer Software - Restricted
 Rights clause in FAR 52.227-19.
  
 Gaussian, Inc.
 340 Quinnipiac St., Bldg. 40, Wallingford CT 06492
  
  
 ---------------------------------------------------------------
 Warning -- This program may not be used in any manner that
 competes with the business of Gaussian, Inc. or will provide
 assistance to any competitor of Gaussian, Inc.  The licensee
 of this program is prohibited from giving any competitor of
 Gaussian, Inc. access to this program.  By using this program,
 the user acknowledges that Gaussian, Inc. is engaged in the
 business of creating and licensing software in the field of
 computational chemistry and represents and warrants to the
 licensee that it is not a competitor of Gaussian, Inc. and that
 it will not use this program in any manner prohibited above.
 ---------------------------------------------------------------
  

 Cite this work as:
 Gaussian 16, Revision B.01,
 M. J. Frisch, G. W. Trucks, H. B. Schlegel, G. E. Scuseria, 
 M. A. Robb, J. R. Cheeseman, G. Scalmani, V. Barone, 
 G. A. Petersson, H. Nakatsuji, X. Li, M. Caricato, A. V. Marenich, 
 J. Bloino, B. G. Janesko, R. Gomperts, B. Mennucci, H. P. Hratchian, 
 J. V. Ortiz, A. F. Izmaylov, J. L. Sonnenberg, D. Williams-Young, 
 F. Ding, F. Lipparini, F. Egidi, J. Goings, B. Peng, A. Petrone, 
 T. Henderson, D. Ranasinghe, V. G. Zakrzewski, J. Gao, N. Rega, 
 G. Zheng, W. Liang, M. Hada, M. Ehara, K. Toyota, R. Fukuda, 
 J. Hasegawa, M. Ishida, T. Nakajima, Y. Honda, O. Kitao, H. Nakai, 
 T. Vreven, K. Throssell, J. A. Montgomery, Jr., J. E. Peralta, 
 F. Ogliaro, M. J. Bearpark, J. J. Heyd, E. N. Brothers, K. N. Kudin, 
 V. N. Staroverov, T. A. Keith, R. Kobayashi, J. Normand, 
 K. Raghavachari, A. P. Rendell, J. C. Burant, S. S. Iyengar, 
 J. Tomasi, M. Cossi, J. M. Millam, M. Klene, C. Adamo, R. Cammi, 
 J. W. Ochterski, R. L. Martin, K. Morokuma, O. Farkas, 
 J. B. Foresman, and D. J. Fox, Gaussian, Inc., Wallingford CT, 2016.
 
 ******************************************
 Gaussian 16:  ES64L-G16RevB.01 20-Dec-2017
                21-Feb-2022 
 ******************************************
 %nproc=28
 Will use up to   28 processors via shared memory.
 %mem=120GB
 %chk=hoono_d2_178p0922.chk
 ---------------------------------------
 #p freq mp2/aug-cc-pvtz density=current
 ---------------------------------------
 1/10=4,30=1,38=1/1,3;
 2/12=2,17=6,18=5,40=1/2;
 3/5=16,6=1,7=10,11=9,25=1,30=1,71=2,140=1/1,2,3;
 4//1;
 5/5=2,38=5,98=1/2;
 8/6=3,8=1,10=1,19=11,30=-1/1;
 9/15=3,16=-3/6;
 11/6=1,8=1,15=11,17=12,24=-1,27=1,28=-2,29=300,32=6,42=3/1,2,10;
 10/6=2,21=1/2;
 8/6=4,8=1,10=1,19=11,30=-1/11,4;
 10/5=1,20=4/2;
 11/12=2,14=11,16=1,17=2,28=-2,42=3,76=2/2,10,12;
 6/7=2,8=2,9=2,10=2,22=-1/1;
 7/8=1,10=1,12=2,25=1,44=2/1,2,3,16;
 1/10=4,30=1/3;
 99//99;
 Leave Link    1 at Mon Feb 21 21:13:00 2022, MaxMem= 16106127360 cpu:               2.4 elap:               0.1
 (Enter /sw/contrib/gaussian/g16/B01/g16/l101.exe)
 -----
 title
 -----
 Symbolic Z-matrix:
 Charge =  0 Multiplicity = 1
 H
 O                    1    r1
 O                    2    r2       1    a1
 N                    3    r3       2    a2       1    d1       0
 O                    4    r4       3    a3       2    d2       0
       Variables:
  r1                    0.96898                  
  r2                    1.45492                  
  r3                    1.45878                  
  r4                    1.17073                  
  a1                   97.59495                  
  a2                  102.29752                  
  a3                  109.06955                  
  d1                  180.                       
  d2                  178.09229                  
 
 ITRead=  0  0  0  0  0
 MicOpt= -1 -1 -1 -1 -1
 NAtoms=      5 NQM=        5 NQMF=       0 NMMI=      0 NMMIF=      0
                NMic=       0 NMicF=      0.
                    Isotopes and Nuclear Properties:
 (Nuclear quadrupole moments (NQMom) in fm**2, nuclear magnetic moments (NMagM)
  in nuclear magnetons)

  Atom         1           2           3           4           5
 IAtWgt=           1          16          16          14          16
 AtmWgt=   1.0078250  15.9949146  15.9949146  14.0030740  15.9949146
 NucSpn=           1           0           0           2           0
 AtZEff=  -0.0000000  -0.0000000  -0.0000000  -0.0000000  -0.0000000
 NQMom=    0.0000000   0.0000000   0.0000000   2.0440000   0.0000000
 NMagM=    2.7928460   0.0000000   0.0000000   0.4037610   0.0000000
 AtZNuc=   1.0000000   8.0000000   8.0000000   7.0000000   8.0000000
 Leave Link  101 at Mon Feb 21 21:13:00 2022, MaxMem= 16106127360 cpu:               2.5 elap:               0.1
 (Enter /sw/contrib/gaussian/g16/B01/g16/l103.exe)

 GradGradGradGradGradGradGradGradGradGradGradGradGradGradGradGradGradGrad
 Berny optimization.
 Initialization pass.
                       ----------------------------
                       !    Initial Parameters    !
                       ! (Angstroms and Degrees)  !
 ----------------------                            ----------------------
 !      Name          Value   Derivative information (Atomic Units)     !
 ------------------------------------------------------------------------
 !       r1          0.969    calculate D2E/DX2 analytically            !
 !       r2          1.4549   calculate D2E/DX2 analytically            !
 !       r3          1.4588   calculate D2E/DX2 analytically            !
 !       r4          1.1707   calculate D2E/DX2 analytically            !
 !       a1         97.5949   calculate D2E/DX2 analytically            !
 !       a2        102.2975   calculate D2E/DX2 analytically            !
 !       a3        109.0696   calculate D2E/DX2 analytically            !
 !       d1        180.0      calculate D2E/DX2 analytically            !
 !       d2        178.0923   calculate D2E/DX2 analytically            !
 ------------------------------------------------------------------------
 Trust Radius=3.00D-01 FncErr=1.00D-07 GrdErr=1.00D-07 EigMax=2.50D+02 EigMin=1.00D-04
 Number of steps in this run=      2 maximum allowed number of steps=      2.
 GradGradGradGradGradGradGradGradGradGradGradGradGradGradGradGradGradGrad

 Leave Link  103 at Mon Feb 21 21:13:00 2022, MaxMem= 16106127360 cpu:               0.5 elap:               0.0
 (Enter /sw/contrib/gaussian/g16/B01/g16/l202.exe)
                          Input orientation:                          
 ---------------------------------------------------------------------
 Center     Atomic      Atomic             Coordinates (Angstroms)
 Number     Number       Type             X           Y           Z
 ---------------------------------------------------------------------
      1          1           0        0.000000    0.000000    0.000000
      2          8           0        0.000000    0.000000    0.968976
      3          8           0        1.442156    0.000000    1.161271
      4          7           0        1.561752    0.000000    2.615144
      5          8           0        2.695256   -0.036834    2.905689
 ---------------------------------------------------------------------
                    Distance matrix (angstroms):
                    1          2          3          4          5
     1  H    0.000000
     2  O    0.968976   0.000000
     3  O    1.851584   1.454919   0.000000
     4  N    3.045989   2.269127   1.458784   0.000000
     5  O    3.963432   3.319130   2.148165   1.170729   0.000000
 Stoichiometry    HNO3
 Framework group  C1[X(HNO3)]
 Deg. of freedom     9
 Full point group                 C1      NOp   1
 Largest Abelian subgroup         C1      NOp   1
 Largest concise Abelian subgroup C1      NOp   1
                         Standard orientation:                         
 ---------------------------------------------------------------------
 Center     Atomic      Atomic             Coordinates (Angstroms)
 Number     Number       Type             X           Y           Z
 ---------------------------------------------------------------------
      1          1           0       -2.248820    0.434593   -0.009642
      2          8           0       -1.598723   -0.283935   -0.007478
      3          8           0       -0.400384    0.541003    0.008422
      4          7           0        0.663714   -0.456857    0.012952
      5          8           0        1.699460    0.088358   -0.011072
 ---------------------------------------------------------------------
 Rotational constants (GHZ):          54.9218544           5.0114588           4.5929507
 Leave Link  202 at Mon Feb 21 21:13:00 2022, MaxMem= 16106127360 cpu:               3.1 elap:               0.2
 (Enter /sw/contrib/gaussian/g16/B01/g16/l301.exe)
 Standard basis: Aug-CC-pVTZ (5D, 7F)
 Ernie: Thresh=  0.10000D-02 Tol=  0.10000D-05 Strict=F.
 Ernie:  12 primitive shells out of 131 were deleted.
 There are   245 symmetry adapted cartesian basis functions of A   symmetry.
 There are   207 symmetry adapted basis functions of A   symmetry.
   207 basis functions,   315 primitive gaussians,   245 cartesian basis functions
    16 alpha electrons       16 beta electrons
       nuclear repulsion energy       116.8728748569 Hartrees.
 IExCor=    0 DFT=F Ex=HF Corr=None ExCW=0 ScaHFX=  1.000000
 ScaDFX=  1.000000  1.000000  1.000000  1.000000 ScalE2=  1.000000  1.000000
 IRadAn=      5 IRanWt=     -1 IRanGd=            0 ICorTp=0 IEmpDi=  4
 NAtoms=    5 NActive=    5 NUniq=    5 SFac= 1.00D+00 NAtFMM=   60 NAOKFM=F Big=F
 Integral buffers will be    131072 words long.
 Raffenetti 1 integral format.
 Two-electron integral symmetry is turned on.
 Leave Link  301 at Mon Feb 21 21:13:00 2022, MaxMem= 16106127360 cpu:               1.5 elap:               0.1
 (Enter /sw/contrib/gaussian/g16/B01/g16/l302.exe)
 NPDir=0 NMtPBC=     1 NCelOv=     1 NCel=       1 NClECP=     1 NCelD=      1
         NCelK=      1 NCelE2=     1 NClLst=     1 CellRange=     0.0.
 One-electron integrals computed using PRISM.
 One-electron integral symmetry used in STVInt
 NBasis=   207 RedAO= T EigKep=  1.82D-04  NBF=   207
 NBsUse=   207 1.00D-06 EigRej= -1.00D+00 NBFU=   207
 Leave Link  302 at Mon Feb 21 21:13:01 2022, MaxMem= 16106127360 cpu:               4.9 elap:               0.2
 (Enter /sw/contrib/gaussian/g16/B01/g16/l303.exe)
 DipDrv:  MaxL=1.
 Leave Link  303 at Mon Feb 21 21:13:01 2022, MaxMem= 16106127360 cpu:               0.9 elap:               0.1
 (Enter /sw/contrib/gaussian/g16/B01/g16/l401.exe)
 ExpMin= 2.53D-02 ExpMax= 1.53D+04 ExpMxC= 5.22D+02 IAcc=3 IRadAn=         5 AccDes= 0.00D+00
 Harris functional with IExCor=  205 and IRadAn=       5 diagonalized for initial guess.
 HarFok:  IExCor=  205 AccDes= 0.00D+00 IRadAn=         5 IDoV= 1 UseB2=F ITyADJ=14
 ICtDFT=  3500011 ScaDFX=  1.000000  1.000000  1.000000  1.000000
 FoFCou: FMM=F IPFlag=           0 FMFlag=      100000 FMFlg1=           0
         NFxFlg=           0 DoJE=T BraDBF=F KetDBF=T FulRan=T
         wScrn=  0.000000 ICntrl=       500 IOpCl=  0 I1Cent=   200000004 NGrid=           0
         NMat0=    1 NMatS0=      1 NMatT0=    0 NMatD0=    1 NMtDS0=    0 NMtDT0=    0
 Petite list used in FoFCou.
 Harris En= -279.628680838508    
 JPrj=0 DoOrth=F DoCkMO=F.
 Leave Link  401 at Mon Feb 21 21:13:01 2022, MaxMem= 16106127360 cpu:               7.0 elap:               0.3
 (Enter /sw/contrib/gaussian/g16/B01/g16/l502.exe)
 Keep R1 ints in memory in canonical form, NReq=245616893.
 FoFCou: FMM=F IPFlag=           0 FMFlag=           0 FMFlg1=           0
         NFxFlg=           0 DoJE=F BraDBF=F KetDBF=F FulRan=T
         wScrn=  0.000000 ICntrl=       600 IOpCl=  0 I1Cent=           0 NGrid=           0
         NMat0=    1 NMatS0=  21528 NMatT0=    0 NMatD0=    1 NMtDS0=    0 NMtDT0=    0
 Symmetry not used in FoFCou.
 Two-electron integral symmetry not used.
 Closed shell SCF:
 Using DIIS extrapolation, IDIIS=  1040.
 NGot= 16106127360 LenX= 15874260251 LenY= 15874199785
 Requested convergence on RMS density matrix=1.00D-08 within 128 cycles.
 Requested convergence on MAX density matrix=1.00D-06.
 Requested convergence on             energy=1.00D-06.
 No special actions if energy rises.

 Cycle   1  Pass 1  IDiag  1:
 E= -279.370466558003    
 DIIS: error= 2.64D-02 at cycle   1 NSaved=   1.
 NSaved= 1 IEnMin= 1 EnMin= -279.370466558003     IErMin= 1 ErrMin= 2.64D-02
 ErrMax= 2.64D-02  0.00D+00 EMaxC= 1.00D-01 BMatC= 4.38D-01 BMatP= 4.38D-01
 IDIUse=3 WtCom= 7.36D-01 WtEn= 2.64D-01
 Coeff-Com:  0.100D+01
 Coeff-En:   0.100D+01
 Coeff:      0.100D+01
 Gap=     0.519 Goal=   None    Shift=    0.000
 GapD=    0.519 DampG=2.000 DampE=0.500 DampFc=1.0000 IDamp=-1.
 RMSDP=1.62D-03 MaxDP=9.92D-02              OVMax= 1.13D-01

 Cycle   2  Pass 1  IDiag  1:
 E= -279.452407532388     Delta-E=       -0.081940974385 Rises=F Damp=F
 DIIS: error= 1.79D-02 at cycle   2 NSaved=   2.
 NSaved= 2 IEnMin= 2 EnMin= -279.452407532388     IErMin= 2 ErrMin= 1.79D-02
 ErrMax= 1.79D-02  0.00D+00 EMaxC= 1.00D-01 BMatC= 7.18D-02 BMatP= 4.38D-01
 IDIUse=3 WtCom= 8.21D-01 WtEn= 1.79D-01
 Coeff-Com:  0.195D+00 0.805D+00
 Coeff-En:   0.000D+00 0.100D+01
 Coeff:      0.160D+00 0.840D+00
 Gap=     0.534 Goal=   None    Shift=    0.000
 RMSDP=9.00D-04 MaxDP=3.73D-02 DE=-8.19D-02 OVMax= 6.93D-02

 Cycle   3  Pass 1  IDiag  1:
 E= -279.481518840580     Delta-E=       -0.029111308191 Rises=F Damp=F
 DIIS: error= 1.04D-02 at cycle   3 NSaved=   3.
 NSaved= 3 IEnMin= 3 EnMin= -279.481518840580     IErMin= 3 ErrMin= 1.04D-02
 ErrMax= 1.04D-02  0.00D+00 EMaxC= 1.00D-01 BMatC= 2.87D-02 BMatP= 7.18D-02
 IDIUse=3 WtCom= 8.96D-01 WtEn= 1.04D-01
 Coeff-Com: -0.330D-01 0.378D+00 0.655D+00
 Coeff-En:   0.000D+00 0.241D+00 0.759D+00
 Coeff:     -0.296D-01 0.364D+00 0.666D+00
 Gap=     0.510 Goal=   None    Shift=    0.000
 RMSDP=3.77D-04 MaxDP=1.54D-02 DE=-2.91D-02 OVMax= 3.81D-02

 Cycle   4  Pass 1  IDiag  1:
 E= -279.500597224276     Delta-E=       -0.019078383696 Rises=F Damp=F
 DIIS: error= 1.29D-03 at cycle   4 NSaved=   4.
 NSaved= 4 IEnMin= 4 EnMin= -279.500597224276     IErMin= 4 ErrMin= 1.29D-03
 ErrMax= 1.29D-03  0.00D+00 EMaxC= 1.00D-01 BMatC= 4.94D-04 BMatP= 2.87D-02
 IDIUse=3 WtCom= 9.87D-01 WtEn= 1.29D-02
 Coeff-Com: -0.117D-01 0.575D-01 0.158D+00 0.796D+00
 Coeff-En:   0.000D+00 0.000D+00 0.000D+00 0.100D+01
 Coeff:     -0.115D-01 0.567D-01 0.156D+00 0.798D+00
 Gap=     0.502 Goal=   None    Shift=    0.000
 RMSDP=9.03D-05 MaxDP=2.17D-03 DE=-1.91D-02 OVMax= 1.12D-02

 Cycle   5  Pass 1  IDiag  1:
 E= -279.501273626547     Delta-E=       -0.000676402271 Rises=F Damp=F
 DIIS: error= 7.37D-04 at cycle   5 NSaved=   5.
 NSaved= 5 IEnMin= 5 EnMin= -279.501273626547     IErMin= 5 ErrMin= 7.37D-04
 ErrMax= 7.37D-04  0.00D+00 EMaxC= 1.00D-01 BMatC= 8.72D-05 BMatP= 4.94D-04
 IDIUse=3 WtCom= 9.93D-01 WtEn= 7.37D-03
 Coeff-Com:  0.613D-02-0.724D-01-0.118D+00 0.202D-01 0.116D+01
 Coeff-En:   0.000D+00 0.000D+00 0.000D+00 0.000D+00 0.100D+01
 Coeff:      0.609D-02-0.719D-01-0.117D+00 0.201D-01 0.116D+01
 Gap=     0.502 Goal=   None    Shift=    0.000
 RMSDP=7.63D-05 MaxDP=2.10D-03 DE=-6.76D-04 OVMax= 1.11D-02

 Cycle   6  Pass 1  IDiag  1:
 E= -279.501589102675     Delta-E=       -0.000315476127 Rises=F Damp=F
 DIIS: error= 2.85D-04 at cycle   6 NSaved=   6.
 NSaved= 6 IEnMin= 6 EnMin= -279.501589102675     IErMin= 6 ErrMin= 2.85D-04
 ErrMax= 2.85D-04  0.00D+00 EMaxC= 1.00D-01 BMatC= 1.67D-05 BMatP= 8.72D-05
 IDIUse=3 WtCom= 9.97D-01 WtEn= 2.85D-03
 Coeff-Com:  0.595D-03 0.162D-02 0.451D-02-0.130D+00-0.231D+00 0.135D+01
 Coeff-En:   0.000D+00 0.000D+00 0.000D+00 0.000D+00 0.000D+00 0.100D+01
 Coeff:      0.594D-03 0.161D-02 0.450D-02-0.129D+00-0.230D+00 0.135D+01
 Gap=     0.502 Goal=   None    Shift=    0.000
 RMSDP=4.54D-05 MaxDP=1.06D-03 DE=-3.15D-04 OVMax= 5.56D-03

 Cycle   7  Pass 1  IDiag  1:
 E= -279.501661945670     Delta-E=       -0.000072842995 Rises=F Damp=F
 DIIS: error= 1.23D-04 at cycle   7 NSaved=   7.
 NSaved= 7 IEnMin= 7 EnMin= -279.501661945670     IErMin= 7 ErrMin= 1.23D-04
 ErrMax= 1.23D-04  0.00D+00 EMaxC= 1.00D-01 BMatC= 4.52D-06 BMatP= 1.67D-05
 IDIUse=3 WtCom= 9.99D-01 WtEn= 1.23D-03
 Coeff-Com: -0.939D-03 0.136D-01 0.265D-01-0.243D-01-0.287D+00 0.392D+00
 Coeff-Com:  0.881D+00
 Coeff-En:   0.000D+00 0.000D+00 0.000D+00 0.000D+00 0.000D+00 0.000D+00
 Coeff-En:   0.100D+01
 Coeff:     -0.938D-03 0.135D-01 0.265D-01-0.243D-01-0.287D+00 0.391D+00
 Coeff:      0.881D+00
 Gap=     0.502 Goal=   None    Shift=    0.000
 RMSDP=1.33D-05 MaxDP=3.78D-04 DE=-7.28D-05 OVMax= 1.55D-03

 Cycle   8  Pass 1  IDiag  1:
 E= -279.501670858119     Delta-E=       -0.000008912450 Rises=F Damp=F
 DIIS: error= 5.72D-05 at cycle   8 NSaved=   8.
 NSaved= 8 IEnMin= 8 EnMin= -279.501670858119     IErMin= 8 ErrMin= 5.72D-05
 ErrMax= 5.72D-05  0.00D+00 EMaxC= 1.00D-01 BMatC= 6.07D-07 BMatP= 4.52D-06
 IDIUse=1 WtCom= 1.00D+00 WtEn= 0.00D+00
 Coeff-Com: -0.449D-03 0.345D-02 0.761D-02 0.274D-01-0.409D-01-0.198D+00
 Coeff-Com:  0.171D+00 0.103D+01
 Coeff:     -0.449D-03 0.345D-02 0.761D-02 0.274D-01-0.409D-01-0.198D+00
 Coeff:      0.171D+00 0.103D+01
 Gap=     0.502 Goal=   None    Shift=    0.000
 RMSDP=6.91D-06 MaxDP=2.03D-04 DE=-8.91D-06 OVMax= 7.47D-04

 Cycle   9  Pass 1  IDiag  1:
 E= -279.501672637738     Delta-E=       -0.000001779618 Rises=F Damp=F
 DIIS: error= 1.58D-05 at cycle   9 NSaved=   9.
 NSaved= 9 IEnMin= 9 EnMin= -279.501672637738     IErMin= 9 ErrMin= 1.58D-05
 ErrMax= 1.58D-05  0.00D+00 EMaxC= 1.00D-01 BMatC= 6.93D-08 BMatP= 6.07D-07
 IDIUse=1 WtCom= 1.00D+00 WtEn= 0.00D+00
 Coeff-Com:  0.123D-03-0.172D-02-0.308D-02-0.206D-02 0.342D-01-0.169D-04
 Coeff-Com: -0.167D+00-0.103D+00 0.124D+01
 Coeff:      0.123D-03-0.172D-02-0.308D-02-0.206D-02 0.342D-01-0.169D-04
 Coeff:     -0.167D+00-0.103D+00 0.124D+01
 Gap=     0.502 Goal=   None    Shift=    0.000
 RMSDP=1.94D-06 MaxDP=5.17D-05 DE=-1.78D-06 OVMax= 1.75D-04

 Cycle  10  Pass 1  IDiag  1:
 E= -279.501672798299     Delta-E=       -0.000000160561 Rises=F Damp=F
 DIIS: error= 4.11D-06 at cycle  10 NSaved=  10.
 NSaved=10 IEnMin=10 EnMin= -279.501672798299     IErMin=10 ErrMin= 4.11D-06
 ErrMax= 4.11D-06  0.00D+00 EMaxC= 1.00D-01 BMatC= 5.56D-09 BMatP= 6.93D-08
 IDIUse=1 WtCom= 1.00D+00 WtEn= 0.00D+00
 Coeff-Com:  0.310D-04-0.243D-03-0.323D-03-0.270D-02 0.162D-02 0.197D-01
 Coeff-Com: -0.130D-01-0.743D-01-0.804D-01 0.115D+01
 Coeff:      0.310D-04-0.243D-03-0.323D-03-0.270D-02 0.162D-02 0.197D-01
 Coeff:     -0.130D-01-0.743D-01-0.804D-01 0.115D+01
 Gap=     0.502 Goal=   None    Shift=    0.000
 RMSDP=5.06D-07 MaxDP=2.11D-05 DE=-1.61D-07 OVMax= 4.18D-05

 Cycle  11  Pass 1  IDiag  1:
 E= -279.501672810898     Delta-E=       -0.000000012599 Rises=F Damp=F
 DIIS: error= 2.02D-06 at cycle  11 NSaved=  11.
 NSaved=11 IEnMin=11 EnMin= -279.501672810898     IErMin=11 ErrMin= 2.02D-06
 ErrMax= 2.02D-06  0.00D+00 EMaxC= 1.00D-01 BMatC= 6.65D-10 BMatP= 5.56D-09
 IDIUse=1 WtCom= 1.00D+00 WtEn= 0.00D+00
 Coeff-Com: -0.213D-04 0.245D-03 0.488D-03 0.535D-03-0.429D-02-0.357D-02
 Coeff-Com:  0.211D-01 0.311D-01-0.139D+00-0.179D+00 0.127D+01
 Coeff:     -0.213D-04 0.245D-03 0.488D-03 0.535D-03-0.429D-02-0.357D-02
 Coeff:      0.211D-01 0.311D-01-0.139D+00-0.179D+00 0.127D+01
 Gap=     0.502 Goal=   None    Shift=    0.000
 RMSDP=1.80D-07 MaxDP=6.52D-06 DE=-1.26D-08 OVMax= 1.74D-05

 Cycle  12  Pass 1  IDiag  1:
 E= -279.501672812732     Delta-E=       -0.000000001834 Rises=F Damp=F
 DIIS: error= 5.84D-07 at cycle  12 NSaved=  12.
 NSaved=12 IEnMin=12 EnMin= -279.501672812732     IErMin=12 ErrMin= 5.84D-07
 ErrMax= 5.84D-07  0.00D+00 EMaxC= 1.00D-01 BMatC= 7.30D-11 BMatP= 6.65D-10
 IDIUse=1 WtCom= 1.00D+00 WtEn= 0.00D+00
 Coeff-Com:  0.127D-05-0.296D-04-0.641D-04 0.183D-03 0.109D-02-0.231D-02
 Coeff-Com: -0.416D-02 0.545D-02 0.421D-01-0.114D+00-0.282D+00 0.135D+01
 Coeff:      0.127D-05-0.296D-04-0.641D-04 0.183D-03 0.109D-02-0.231D-02
 Coeff:     -0.416D-02 0.545D-02 0.421D-01-0.114D+00-0.282D+00 0.135D+01
 Gap=     0.502 Goal=   None    Shift=    0.000
 RMSDP=7.34D-08 MaxDP=2.82D-06 DE=-1.83D-09 OVMax= 6.73D-06

 Cycle  13  Pass 1  IDiag  1:
 E= -279.501672812968     Delta-E=       -0.000000000237 Rises=F Damp=F
 DIIS: error= 1.67D-07 at cycle  13 NSaved=  13.
 NSaved=13 IEnMin=13 EnMin= -279.501672812968     IErMin=13 ErrMin= 1.67D-07
 ErrMax= 1.67D-07  0.00D+00 EMaxC= 1.00D-01 BMatC= 4.36D-12 BMatP= 7.30D-11
 IDIUse=1 WtCom= 1.00D+00 WtEn= 0.00D+00
 Coeff-Com:  0.131D-05-0.142D-04-0.228D-04-0.915D-04 0.121D-03 0.784D-03
 Coeff-Com: -0.842D-03-0.336D-02 0.462D-03 0.423D-01-0.355D-01-0.335D+00
 Coeff-Com:  0.133D+01
 Coeff:      0.131D-05-0.142D-04-0.228D-04-0.915D-04 0.121D-03 0.784D-03
 Coeff:     -0.842D-03-0.336D-02 0.462D-03 0.423D-01-0.355D-01-0.335D+00
 Coeff:      0.133D+01
 Gap=     0.502 Goal=   None    Shift=    0.000
 RMSDP=2.05D-08 MaxDP=5.64D-07 DE=-2.37D-10 OVMax= 1.81D-06

 Cycle  14  Pass 1  IDiag  1:
 E= -279.501672812984     Delta-E=       -0.000000000016 Rises=F Damp=F
 DIIS: error= 3.93D-08 at cycle  14 NSaved=  14.
 NSaved=14 IEnMin=14 EnMin= -279.501672812984     IErMin=14 ErrMin= 3.93D-08
 ErrMax= 3.93D-08  0.00D+00 EMaxC= 1.00D-01 BMatC= 3.18D-13 BMatP= 4.36D-12
 IDIUse=1 WtCom= 1.00D+00 WtEn= 0.00D+00
 Coeff-Com: -0.241D-06 0.377D-05 0.664D-05 0.725D-05-0.926D-04 0.289D-04
 Coeff-Com:  0.331D-03 0.321D-03-0.265D-02 0.424D-03 0.195D-01-0.190D-01
 Coeff-Com: -0.250D+00 0.125D+01
 Coeff:     -0.241D-06 0.377D-05 0.664D-05 0.725D-05-0.926D-04 0.289D-04
 Coeff:      0.331D-03 0.321D-03-0.265D-02 0.424D-03 0.195D-01-0.190D-01
 Coeff:     -0.250D+00 0.125D+01
 Gap=     0.502 Goal=   None    Shift=    0.000
 RMSDP=5.30D-09 MaxDP=8.92D-08 DE=-1.59D-11 OVMax= 6.30D-07

 SCF Done:  E(RHF) =  -279.501672813     A.U. after   14 cycles
            NFock= 14  Conv=0.53D-08     -V/T= 2.0024
 KE= 2.788454009015D+02 PE=-8.950725588051D+02 EE= 2.198526102336D+02
 Leave Link  502 at Mon Feb 21 21:13:08 2022, MaxMem= 16106127360 cpu:              40.1 elap:               7.0
 (Enter /sw/contrib/gaussian/g16/B01/g16/l801.exe)
 ExpMin= 2.53D-02 ExpMax= 1.53D+04 ExpMxC= 5.22D+02 IAcc=3 IRadAn=         5 AccDes= 0.00D+00
 HarFok:  IExCor=  205 AccDes= 0.00D+00 IRadAn=         5 IDoV=-2 UseB2=F ITyADJ=14
 ICtDFT= 12500011 ScaDFX=  1.000000  1.000000  1.000000  1.000000
 Largest valence mixing into a core orbital is  2.08D-04
 Largest core mixing into a valence orbital is  3.63D-05
 Range of M.O.s used for correlation:     5   207
 NBasis=   207 NAE=    16 NBE=    16 NFC=     4 NFV=     0
 NROrb=    203 NOA=    12 NOB=    12 NVA=   191 NVB=   191

 **** Warning!!: The largest alpha MO coefficient is  0.17662452D+02

 Leave Link  801 at Mon Feb 21 21:13:08 2022, MaxMem= 16106127360 cpu:               2.1 elap:               0.1
 (Enter /sw/contrib/gaussian/g16/B01/g16/l906.exe)
 Frozen-core derivative calculation, NFC=   4 NFV=   0.
 FulOut=F Deriv=T AODrv=T NAtomX=     5
   MMem=           0  MDisk=          12 MDiskD=          12
  W3Min=      811440 MinDsk=     2425030 NBas6D=         245
 NBas2D=       30762    NTT=       30135    LW2=     7400000
    MDV= 16105638402 MDiskM=      328645 NBas2p=       30702
 Disk-based method using ON**2 memory for 12 occupieds at a time.
 Permanent disk used for amplitudes=    11516536 words.
 Estimated scratch disk usage=   321251614 words.
 IMap=   1   2   3   4   5   6   7   8   9  10  11  12  13  14  15  16
 Actual    scratch disk usage=   310331678 words.
 JobTyp=1 Pass  1:  I=   5 to  16 NPSUse= 28 ParTrn=T ParDer=T DoDerP=T.
 (rs|ai) integrals will be sorted in core.
 Spin components of T(2) and E(2):
     alpha-alpha T2 =       0.3402417170D-01 E2=     -0.1224036804D+00
     alpha-beta  T2 =       0.1868465203D+00 E2=     -0.7002318084D+00
     beta-beta   T2 =       0.3402417170D-01 E2=     -0.1224036804D+00
 The integrals were generated   1 times.
 ANorm=    0.1120220900D+01
 E2 =    -0.9450391693D+00 EUMP2 =    -0.28044671198227D+03
 Leave Link  906 at Mon Feb 21 21:14:46 2022, MaxMem= 16106127360 cpu:            2733.3 elap:              97.7
 (Enter /sw/contrib/gaussian/g16/B01/g16/l1101.exe)
 Using compressed Sx but separate Hx and Fx, NAtomX=     5.
 Will process      6 centers per pass.
 Leave Link 1101 at Mon Feb 21 21:14:46 2022, MaxMem= 16106127360 cpu:               5.2 elap:               0.2
 (Enter /sw/contrib/gaussian/g16/B01/g16/l1102.exe)
 Leave Link 1102 at Mon Feb 21 21:14:46 2022, MaxMem= 16106127360 cpu:               0.8 elap:               0.1
 (Enter /sw/contrib/gaussian/g16/B01/g16/l1110.exe)
 Forming Gx(P) for the SCF density, NAtomX=     5.
 Integral derivatives from FoFJK, PRISM(SPDF).
 Do as many integral derivatives as possible in FoFJK.
 G2DrvN: MDV=   16106126844.
 G2DrvN: will do     6 centers at a time, making    1 passes.
 Calling FoFCou, ICntrl=  3107 FMM=F I1Cent=   0 AccDes= 0.00D+00.
 FoFJK:  IHMeth= 1 ICntrl=    3107 DoSepK=F KAlg= 0 I1Cent=           0 FoldK=F
 IRaf=         0 NMat=       1 IRICut=       1 DoRegI=T DoRafI=F ISym2E= 0 IDoP0=0 IntGTp=1.
 FoFCou: FMM=F IPFlag=           0 FMFlag=      100000 FMFlg1=           0
         NFxFlg=           0 DoJE=F BraDBF=F KetDBF=F FulRan=T
         wScrn=  0.000000 ICntrl=      3107 IOpCl=  0 I1Cent=           0 NGrid=           0
         NMat0=    1 NMatS0=      1 NMatT0=    0 NMatD0=    1 NMtDS0=    0 NMtDT0=    0
 Symmetry not used in FoFCou.
 End of G2Drv F.D. properties file   721 does not exist.
 End of G2Drv F.D. properties file   722 does not exist.
 End of G2Drv F.D. properties file   788 does not exist.
 Leave Link 1110 at Mon Feb 21 21:14:49 2022, MaxMem= 16106127360 cpu:              84.4 elap:               3.1
 (Enter /sw/contrib/gaussian/g16/B01/g16/l1002.exe)
 Minotr:  Closed shell wavefunction.
          IDoAtm=11111
          Frozen-core window.
          Direct CPHF calculation.
          Differentiating once with respect to electric field.
                with respect to dipole field.
          Differentiating once with respect to nuclear coordinates.
          Requested convergence is 1.0D-08 RMS, and 1.0D-07 maximum.
          Secondary convergence is 1.0D-12 RMS, and 1.0D-12 maximum.
          NewPWx=T KeepS1=T KeepF1=T KeepIn=T MapXYZ=F SortEE=F KeepMc=T.
 Keep R1 ints in memory in canonical form, NReq=245618134.
 FoFCou: FMM=F IPFlag=           0 FMFlag=           0 FMFlg1=           0
         NFxFlg=           0 DoJE=F BraDBF=F KetDBF=F FulRan=T
         wScrn=  0.000000 ICntrl=       600 IOpCl=  0 I1Cent=           0 NGrid=           0
         NMat0=    1 NMatS0=  21528 NMatT0=    0 NMatD0=    1 NMtDS0=    0 NMtDT0=    0
 Symmetry not used in FoFCou.
 Two-electron integral symmetry not used.
          MDV=   16106127360 using IRadAn=       1.
          Solving linear equations simultaneously, MaxMat=       0.
          There are    18 degrees of freedom in the 1st order CPHF.  IDoFFX=6 NUNeed=    18.
     15 vectors produced by pass  0 Test12= 1.70D-14 5.56D-09 XBig12= 9.51D+00 1.10D+00.
 AX will form    15 AO Fock derivatives at one time.
     15 vectors produced by pass  1 Test12= 1.70D-14 5.56D-09 XBig12= 1.16D+00 2.29D-01.
     15 vectors produced by pass  2 Test12= 1.70D-14 5.56D-09 XBig12= 1.24D-01 9.43D-02.
     15 vectors produced by pass  3 Test12= 1.70D-14 5.56D-09 XBig12= 4.09D-03 1.05D-02.
     15 vectors produced by pass  4 Test12= 1.70D-14 5.56D-09 XBig12= 7.50D-05 1.58D-03.
     15 vectors produced by pass  5 Test12= 1.70D-14 5.56D-09 XBig12= 9.78D-07 1.28D-04.
     15 vectors produced by pass  6 Test12= 1.70D-14 5.56D-09 XBig12= 7.84D-09 1.13D-05.
     12 vectors produced by pass  7 Test12= 1.70D-14 5.56D-09 XBig12= 5.81D-11 9.38D-07.
      3 vectors produced by pass  8 Test12= 1.70D-14 5.56D-09 XBig12= 4.35D-13 1.00D-07.
      2 vectors produced by pass  9 Test12= 1.70D-14 5.56D-09 XBig12= 3.07D-15 8.98D-09.
 InvSVY:  IOpt=1 It=  1 EMax= 1.55D-15
 Solved reduced A of dimension   122 with    15 vectors.
 FullF1:  Do perturbations      1 to      18.
 Saving first derivative matrices.
 End of Minotr F.D. properties file   721 does not exist.
 End of Minotr F.D. properties file   722 does not exist.
 End of Minotr F.D. properties file   788 does not exist.
 Leave Link 1002 at Mon Feb 21 21:14:53 2022, MaxMem= 16106127360 cpu:             102.9 elap:               3.7
 (Enter /sw/contrib/gaussian/g16/B01/g16/l811.exe)
 MDV= 16106127360.
 Form MO integral derivatives with frozen-active canonical formalism.
 MOERI=1 MOERIx=1 NAtoms=     5 NAtomX=     5.
 Discarding MO integrals.
 MO basis two electron integral derivatives will not be stored on disk.
 IAlg= 3 DoFC=T DoPWx=T Debug=F.
 Frozen-core window:  NFC=   4 NFV=   0.
 Reordered first order wavefunction length =     18678272
 In DefCFB: NBatch=  1 ICI= 16 ICA=191 LFMax= 96
            Large arrays: LIAPS=   619940160 LIARS=   288257200 words.
 In StABat: MaxSiz= 55 MinSiz= 25 NAtomB=  5
 DoIAMN: NPSUse= 28.
 Leave Link  811 at Mon Feb 21 21:16:25 2022, MaxMem= 16106127360 cpu:            2580.9 elap:              92.3
 (Enter /sw/contrib/gaussian/g16/B01/g16/l804.exe)
 Frozen-core window:  NFC=   4 NFV=   0.
 Closed-shell transformation, MDV= 16106127360 ITran=4 ISComp=1.
 Semi-Direct transformation.
 ModeAB=           2 MOrb=            16 LenV=   16104925835
 LASXX=     67341636 LTotXX=    67341636 LenRXX=    67341636
 LTotAB=    68301760 MaxLAS=    99807120 LenRXY=    99807120
 NonZer=   134683272 LenScr=   202817536 LnRSAI=           0
 LnScr1=           0 LExtra=           0 Total=    369966292
 MaxDsk=          -1 SrtSym=           F ITran=            4
 DoSDTr:  NPSUse= 28
 JobTyp=0 Pass  1:  I=   1 to  16.
 (rs|ai) integrals will be sorted in core.
 Complete sort for first half transformation.
 First half transformation complete.
 Begin second half transformation for I=  10.
 Begin second half transformation for I=  10.
 Complete sort for second half transformation.
 Second half transformation complete.
 SymMOI:  orbitals are not symmetric.
 Spin components of T(2) and E(2):
     alpha-alpha T2 =       0.3402417170D-01 E2=     -0.1224036804D+00
     alpha-beta  T2 =       0.1868465203D+00 E2=     -0.7002318084D+00
     beta-beta   T2 =       0.3402417170D-01 E2=     -0.1224036804D+00
 ANorm=    0.1584231589D+01
 E2 =    -0.9450391693D+00 EUMP2 =    -0.28044671198227D+03
 Leave Link  804 at Mon Feb 21 21:16:39 2022, MaxMem= 16106127360 cpu:             375.6 elap:              13.4
 (Enter /sw/contrib/gaussian/g16/B01/g16/l1002.exe)
 Minotr:  Closed shell wavefunction.
          Computing MP2/KS-MP2 derivatives.
          Using Z-Vector for PSCF gradient.
          Skipping F1 and S1 gradient terms here.
          IDoAtm=11111
          Frozen-core window.
          Using MO integrals in the linear equations.
          Forming densities via direct SCF.
          Differentiating once with respect to electric field.
                with respect to dipole field.
          Differentiating once with respect to nuclear coordinates.
          Requested convergence is 1.0D-10 RMS, and 1.0D-09 maximum.
          NewPWx=F KeepS1=T KeepF1=T KeepIn=T MapXYZ=F SortEE=F KeepMc=T.
          MDV=   16106127360 using IRadAn=       5.
          Solving linear equations separately, MaxMat=       0.
          There are     1 degrees of freedom in the 1st order CPHF.  IDoFFX=0 NUNeed=     1.
 FoFJK:  IHMeth= 1 ICntrl=       0 DoSepK=F KAlg= 0 I1Cent=           0 FoldK=F
 IRaf=         0 NMat=       1 IRICut=       1 DoRegI=T DoRafI=F ISym2E= 0 IDoP0=0 IntGTp=1.
 FoFCou: FMM=F IPFlag=           0 FMFlag=      100000 FMFlg1=           0
         NFxFlg=           0 DoJE=F BraDBF=F KetDBF=F FulRan=T
         wScrn=  0.000000 ICntrl=         0 IOpCl=  0 I1Cent=           0 NGrid=           0
         NMat0=    1 NMatS0=      1 NMatT0=    0 NMatD0=    1 NMtDS0=    0 NMtDT0=    0
 Symmetry not used in FoFCou.
 LinEq1:  Iter=  0 NonCon=     1 RMS=5.96D-03 Max=1.32D-01 NDo=     1
 LinEq1:  Iter=  1 NonCon=     1 RMS=1.90D-03 Max=3.82D-02 NDo=     1
 LinEq1:  Iter=  2 NonCon=     1 RMS=8.68D-04 Max=1.40D-02 NDo=     1
 LinEq1:  Iter=  3 NonCon=     1 RMS=3.87D-04 Max=7.81D-03 NDo=     1
 LinEq1:  Iter=  4 NonCon=     1 RMS=1.19D-04 Max=1.90D-03 NDo=     1
 LinEq1:  Iter=  5 NonCon=     1 RMS=4.55D-05 Max=7.23D-04 NDo=     1
 LinEq1:  Iter=  6 NonCon=     1 RMS=2.03D-05 Max=2.27D-04 NDo=     1
 LinEq1:  Iter=  7 NonCon=     1 RMS=8.16D-06 Max=1.53D-04 NDo=     1
 LinEq1:  Iter=  8 NonCon=     1 RMS=3.48D-06 Max=3.41D-05 NDo=     1
 LinEq1:  Iter=  9 NonCon=     1 RMS=9.49D-07 Max=1.30D-05 NDo=     1
 LinEq1:  Iter= 10 NonCon=     1 RMS=1.89D-07 Max=1.97D-06 NDo=     1
 LinEq1:  Iter= 11 NonCon=     1 RMS=3.81D-08 Max=6.43D-07 NDo=     1
 LinEq1:  Iter= 12 NonCon=     1 RMS=1.17D-08 Max=3.17D-07 NDo=     1
 LinEq1:  Iter= 13 NonCon=     1 RMS=3.01D-09 Max=7.92D-08 NDo=     1
 LinEq1:  Iter= 14 NonCon=     1 RMS=5.91D-10 Max=1.04D-08 NDo=     1
 LinEq1:  Iter= 15 NonCon=     1 RMS=1.30D-10 Max=1.75D-09 NDo=     1
 LinEq1:  Iter= 16 NonCon=     0 RMS=3.38D-11 Max=6.15D-10 NDo=     1
 Linear equations converged to 1.000D-10 1.000D-09 after    16 iterations.
 End of Minotr F.D. properties file   721 does not exist.
 End of Minotr F.D. properties file   722 does not exist.
 End of Minotr F.D. properties file   788 does not exist.
 Leave Link 1002 at Mon Feb 21 21:16:41 2022, MaxMem= 16106127360 cpu:              66.1 elap:               2.4
 (Enter /sw/contrib/gaussian/g16/B01/g16/l1102.exe)
 Use density number 2.
 Symmetrizing basis deriv contribution to polar:
 IMax=3 JMax=2 DiffMx= 0.00D+00
 Leave Link 1102 at Mon Feb 21 21:16:41 2022, MaxMem= 16106127360 cpu:               0.6 elap:               0.0
 (Enter /sw/contrib/gaussian/g16/B01/g16/l1110.exe)
 Forming Gx(P) for generalized density number  2 NAtomX=     5.
 Integral derivatives from FoFJK, PRISM(SPDF).
 Do as many integral derivatives as possible in FoFJK.
 G2DrvN: MDV=   16106126844.
 G2DrvN: will do     6 centers at a time, making    1 passes.
 Calling FoFCou, ICntrl=  3107 FMM=F I1Cent=   0 AccDes= 0.00D+00.
 FoFJK:  IHMeth= 1 ICntrl=    3107 DoSepK=F KAlg= 0 I1Cent=           0 FoldK=F
 IRaf=         0 NMat=       1 IRICut=       1 DoRegI=T DoRafI=F ISym2E= 0 IDoP0=0 IntGTp=1.
 FoFCou: FMM=F IPFlag=           0 FMFlag=      100000 FMFlg1=           0
         NFxFlg=           0 DoJE=F BraDBF=F KetDBF=F FulRan=T
         wScrn=  0.000000 ICntrl=      3107 IOpCl=  0 I1Cent=           0 NGrid=           0
         NMat0=    1 NMatS0=      1 NMatT0=    0 NMatD0=    1 NMtDS0=    0 NMtDT0=    0
 Symmetry not used in FoFCou.
 End of G2Drv F.D. properties file   721 does not exist.
 End of G2Drv F.D. properties file   722 does not exist.
 End of G2Drv F.D. properties file   788 does not exist.
 Leave Link 1110 at Mon Feb 21 21:16:45 2022, MaxMem= 16106127360 cpu:              84.5 elap:               3.1
 (Enter /sw/contrib/gaussian/g16/B01/g16/l1112.exe)
 MP22nd: MDV=   16106127360
 This link is doing NAtomX=     5 total of    18 degrees of freedom.
 Using ON3 I/O method in MakUI.
 Frozen-core window:  NFC=   4 NFV=   0.
 Using Ix for Sx.
 Use MO integrals over full window.
 Using OV2 memory method for fx*t*t/D, MaxI=    16 DoOO2=F NP=  28.
 R2 and R3 integrals will be kept in memory, NReq=   915591705.
 FoFCou: FMM=F IPFlag=           0 FMFlag=           0 FMFlg1=           0
         NFxFlg=           0 DoJE=F BraDBF=F KetDBF=F FulRan=T
         wScrn=  0.000000 ICntrl=       600 IOpCl=  0 I1Cent=           0 NGrid=           0
         NMat0=    1 NMatS0=      1 NMatT0=    0 NMatD0=    1 NMtDS0=    0 NMtDT0=    0
 Symmetry not used in FoFCou.
 DD1Dir will call FoFMem   1 times, MxPair=       272
 NAB=   136 NAA=     0 NBB=     0.
 Symmetry is being used.
 FoFJK:  IHMeth= 1 ICntrl=       0 DoSepK=F KAlg= 0 I1Cent=           0 FoldK=F
 IRaf=         0 NMat=      18 IRICut=      45 DoRegI=T DoRafI=T ISym2E= 2 IDoP0=3 IntGTp=3.
 Discarding MO integrals.
 Leave Link 1112 at Mon Feb 21 21:17:11 2022, MaxMem= 16106127360 cpu:             727.3 elap:              26.0
 (Enter /sw/contrib/gaussian/g16/B01/g16/l601.exe)
 Copying SCF densities to generalized density rwf, IOpCl= 0 IROHF=0.

 **********************************************************************

            Population analysis using the MP2 Density.

 **********************************************************************

 Orbital symmetries:
       Occupied  (A) (A) (A) (A) (A) (A) (A) (A) (A) (A) (A) (A)
                 (A) (A) (A) (A)
       Virtual   (A) (A) (A) (A) (A) (A) (A) (A) (A) (A) (A) (A)
                 (A) (A) (A) (A) (A) (A) (A) (A) (A) (A) (A) (A)
                 (A) (A) (A) (A) (A) (A) (A) (A) (A) (A) (A) (A)
                 (A) (A) (A) (A) (A) (A) (A) (A) (A) (A) (A) (A)
                 (A) (A) (A) (A) (A) (A) (A) (A) (A) (A) (A) (A)
                 (A) (A) (A) (A) (A) (A) (A) (A) (A) (A) (A) (A)
                 (A) (A) (A) (A) (A) (A) (A) (A) (A) (A) (A) (A)
                 (A) (A) (A) (A) (A) (A) (A) (A) (A) (A) (A) (A)
                 (A) (A) (A) (A) (A) (A) (A) (A) (A) (A) (A) (A)
                 (A) (A) (A) (A) (A) (A) (A) (A) (A) (A) (A) (A)
                 (A) (A) (A) (A) (A) (A) (A) (A) (A) (A) (A) (A)
                 (A) (A) (A) (A) (A) (A) (A) (A) (A) (A) (A) (A)
                 (A) (A) (A) (A) (A) (A) (A) (A) (A) (A) (A) (A)
                 (A) (A) (A) (A) (A) (A) (A) (A) (A) (A) (A) (A)
                 (A) (A) (A) (A) (A) (A) (A) (A) (A) (A) (A) (A)
                 (A) (A) (A) (A) (A) (A) (A) (A) (A) (A) (A)
 The electronic state is 1-A.
 Alpha  occ. eigenvalues --  -20.69087 -20.68431 -20.65998 -15.81283  -1.62403
 Alpha  occ. eigenvalues --   -1.49574  -1.25441  -0.94807  -0.77278  -0.75918
 Alpha  occ. eigenvalues --   -0.71183  -0.67933  -0.62047  -0.58942  -0.48522
 Alpha  occ. eigenvalues --   -0.47250
 Alpha virt. eigenvalues --    0.02963   0.07166   0.08595   0.10172   0.13338
 Alpha virt. eigenvalues --    0.13452   0.14408   0.15453   0.17823   0.19417
 Alpha virt. eigenvalues --    0.19977   0.20640   0.22083   0.23524   0.23759
 Alpha virt. eigenvalues --    0.26598   0.29343   0.30378   0.31062   0.34343
 Alpha virt. eigenvalues --    0.34976   0.38722   0.42191   0.43152   0.52694
 Alpha virt. eigenvalues --    0.52966   0.55848   0.58160   0.62596   0.63832
 Alpha virt. eigenvalues --    0.67410   0.68486   0.70640   0.71116   0.72424
 Alpha virt. eigenvalues --    0.72945   0.74468   0.79102   0.79264   0.80974
 Alpha virt. eigenvalues --    0.81330   0.83054   0.86821   0.90824   0.92195
 Alpha virt. eigenvalues --    0.92632   0.95655   0.97733   0.98474   1.01642
 Alpha virt. eigenvalues --    1.05164   1.05492   1.08274   1.11757   1.14103
 Alpha virt. eigenvalues --    1.18963   1.22089   1.23260   1.33878   1.35055
 Alpha virt. eigenvalues --    1.38645   1.45326   1.48776   1.50892   1.53805
 Alpha virt. eigenvalues --    1.56671   1.57999   1.61325   1.66410   1.66954
 Alpha virt. eigenvalues --    1.70337   1.79295   1.83077   1.83525   1.87851
 Alpha virt. eigenvalues --    1.91024   1.95618   1.99199   2.00599   2.07767
 Alpha virt. eigenvalues --    2.12086   2.13185   2.15008   2.22458   2.26438
 Alpha virt. eigenvalues --    2.26494   2.28963   2.31429   2.34419   2.38618
 Alpha virt. eigenvalues --    2.42332   2.42975   2.45413   2.46282   2.47680
 Alpha virt. eigenvalues --    2.50147   2.58961   2.59659   2.62064   2.62469
 Alpha virt. eigenvalues --    2.63472   2.66745   2.75723   2.82445   2.85525
 Alpha virt. eigenvalues --    2.88452   2.89493   2.92381   2.95854   3.02534
 Alpha virt. eigenvalues --    3.06825   3.12168   3.20473   3.22653   3.31650
 Alpha virt. eigenvalues --    3.34170   3.51684   3.64307   3.83819   3.84484
 Alpha virt. eigenvalues --    4.14872   4.16293   4.18382   4.25750   4.35166
 Alpha virt. eigenvalues --    4.39328   4.46343   4.51919   4.66143   4.71052
 Alpha virt. eigenvalues --    4.80524   4.82473   4.82868   4.89613   5.02319
 Alpha virt. eigenvalues --    5.07719   5.10361   5.14459   5.17907   5.24264
 Alpha virt. eigenvalues --    5.27225   5.30798   5.32959   5.35518   5.60640
 Alpha virt. eigenvalues --    5.67371   5.76940   5.82896   5.95746   6.16864
 Alpha virt. eigenvalues --    6.30885   6.33817   6.39437   6.49360   6.50540
 Alpha virt. eigenvalues --    6.61383   6.66791   6.69943   6.75764   6.76346
 Alpha virt. eigenvalues --    6.83264   6.89828   7.01360   7.05585   7.05740
 Alpha virt. eigenvalues --    7.09011   7.12447   7.15000   7.18154   7.22509
 Alpha virt. eigenvalues --    7.24178   7.30732   7.32528   7.34750   7.39940
 Alpha virt. eigenvalues --    7.43154   7.48441   7.60456   7.62086   7.62695
 Alpha virt. eigenvalues --    7.66609   7.78935   7.88677   8.09279   8.31450
 Alpha virt. eigenvalues --    8.40913   8.54421  13.39135  14.39301  15.16200
 Alpha virt. eigenvalues --   16.15211
          Condensed to atoms (all electrons):
               1          2          3          4          5
     1  H    0.589533   0.128395   0.020037   0.012410  -0.000649
     2  O    0.128395   8.321697  -0.173559  -0.090444   0.015495
     3  O    0.020037  -0.173559   8.469602  -0.130076  -0.038789
     4  N    0.012410  -0.090444  -0.130076   6.972127  -0.055746
     5  O   -0.000649   0.015495  -0.038789  -0.055746   8.272895
 Mulliken charges:
               1
     1  H    0.250275
     2  O   -0.201584
     3  O   -0.147215
     4  N    0.291729
     5  O   -0.193205
 Sum of Mulliken charges =  -0.00000
 Mulliken charges with hydrogens summed into heavy atoms:
               1
     2  O    0.048691
     3  O   -0.147215
     4  N    0.291729
     5  O   -0.193205
 APT charges:
               1
     1  H    0.299173
     2  O   -0.288227
     3  O   -0.495637
     4  N    0.876674
     5  O   -0.391984
 Sum of APT charges =  -0.00000
 APT charges with hydrogens summed into heavy atoms:
               1
     2  O    0.010946
     3  O   -0.495637
     4  N    0.876674
     5  O   -0.391984
 Electronic spatial extent (au):  <R**2>=            252.8811
 Charge=             -0.0000 electrons
 Dipole moment (field-independent basis, Debye):
    X=             -1.2177    Y=              0.7913    Z=             -0.0035  Tot=              1.4523
 Quadrupole moment (field-independent basis, Debye-Ang):
   XX=            -17.9907   YY=            -23.0932   ZZ=            -22.0110
   XY=             -2.7932   XZ=              0.0519   YZ=              0.0203
 Traceless Quadrupole moment (field-independent basis, Debye-Ang):
   XX=              3.0409   YY=             -2.0615   ZZ=             -0.9794
   XY=             -2.7932   XZ=              0.0519   YZ=              0.0203
 Octapole moment (field-independent basis, Debye-Ang**2):
  XXX=            -18.1999  YYY=              1.7587  ZZZ=             -0.0285  XYY=             -1.0909
  XXY=              6.2036  XXZ=             -0.0640  XZZ=              1.7760  YZZ=              0.2526
  YYZ=             -0.0380  XYZ=              0.0458
 Hexadecapole moment (field-independent basis, Debye-Ang**3):
 XXXX=           -190.0929 YYYY=            -41.0839 ZZZZ=            -18.2562 XXXY=            -12.1443
 XXXZ=              0.2830 YYYX=             -1.0074 YYYZ=              0.0653 ZZZX=             -0.0438
 ZZZY=              0.0138 XXYY=            -42.4518 XXZZ=            -41.6590 YYZZ=             -9.8815
 XXYZ=              0.0005 YYXZ=              0.0160 ZZXY=             -0.4765
 N-N= 1.168728748569D+02 E-N=-8.958563408093D+02  KE= 2.801974458389D+02
  Exact polarizability:  41.728  -0.975  22.520  -0.031  -0.021  17.930
 Approx polarizability:  31.945   1.131  20.579  -0.062  -0.004  15.525
 No NMR shielding tensors so no spin-rotation constants.
 Leave Link  601 at Mon Feb 21 21:17:11 2022, MaxMem= 16106127360 cpu:               4.3 elap:               0.2
 (Enter /sw/contrib/gaussian/g16/B01/g16/l701.exe)
 ... and contract with generalized density number  2.
 Compute integral second derivatives.
 Leave Link  701 at Mon Feb 21 21:17:11 2022, MaxMem= 16106127360 cpu:               6.6 elap:               0.3
 (Enter /sw/contrib/gaussian/g16/B01/g16/l702.exe)
 L702 exits ... SP integral derivatives will be done elsewhere.
 Leave Link  702 at Mon Feb 21 21:17:11 2022, MaxMem= 16106127360 cpu:               0.7 elap:               0.0
 (Enter /sw/contrib/gaussian/g16/B01/g16/l703.exe)
 Integral derivatives from FoFJK, PRISM(SPDF).
 Compute integral second derivatives, UseDBF=F ICtDFT=           0.
 Calling FoFJK, ICntrl=  10100127 FMM=F ISym2X=0 I1Cent= 0 IOpClX= 0 NMat=1 NMatS=1 NMatT=0.
 FoFJK:  IHMeth= 1 ICntrl=10100127 DoSepK=F KAlg= 0 I1Cent=           0 FoldK=F
 IRaf=         0 NMat=       1 IRICut=       1 DoRegI=T DoRafI=F ISym2E= 0 IDoP0=0 IntGTp=1.
 FoFCou: FMM=F IPFlag=           0 FMFlag=      100000 FMFlg1=         800
         NFxFlg=           0 DoJE=F BraDBF=F KetDBF=F FulRan=T
         wScrn=  0.000000 ICntrl=  10100127 IOpCl=  0 I1Cent=           0 NGrid=           0
         NMat0=    1 NMatS0=      1 NMatT0=    0 NMatD0=    1 NMtDS0=    0 NMtDT0=    0
 Symmetry not used in FoFCou.
 Leave Link  703 at Mon Feb 21 21:17:26 2022, MaxMem= 16106127360 cpu:             423.1 elap:              15.2
 (Enter /sw/contrib/gaussian/g16/B01/g16/l716.exe)
 Dipole        =-4.79087731D-01 3.11336302D-01-1.37296349D-03
 Polarizability= 4.17279513D+01-9.75288751D-01 2.25202594D+01
                -3.10511093D-02-2.13615461D-02 1.79303141D+01
 Full mass-weighted force constant matrix:
 Low frequencies --- -269.3081  -10.0922   -1.6023   -0.0016   -0.0015   -0.0012
 Low frequencies ---    5.5347  228.6849  341.4201
 ******    1 imaginary frequencies (negative Signs) ****** 
 Diagonal vibrational polarizability:
       34.7217636       4.5134777      46.6738668
 Harmonic frequencies (cm**-1), IR intensities (KM/Mole), Raman scattering
 activities (A**4/AMU), depolarization ratios for plane and unpolarized
 incident light, reduced masses (AMU), force constants (mDyne/A),
 and normal coordinates:
                      1                      2                      3
                      A                      A                      A
 Frequencies --   -269.3076               228.6787               341.4042
 Red. masses --      1.1388                10.5210                 8.6176
 Frc consts  --      0.0487                 0.3242                 0.5918
 IR Inten    --    124.7299                 0.8824                 4.5480
  Atom  AN      X      Y      Z        X      Y      Z        X      Y      Z
     1   1    -0.01  -0.01   1.00    -0.00  -0.02  -0.57    -0.17  -0.67   0.01
     2   8     0.00   0.00  -0.06     0.01  -0.01  -0.31     0.30  -0.25   0.01
     3   8    -0.00   0.00  -0.04    -0.01   0.02   0.33    -0.14   0.43   0.00
     4   7     0.00   0.00   0.06     0.00   0.01   0.52    -0.19   0.18  -0.03
     5   8    -0.00  -0.00  -0.01    -0.01  -0.01  -0.44     0.02  -0.30   0.01
                      4                      5                      6
                      A                      A                      A
 Frequencies --    451.6865               785.4384               967.2612
 Red. masses --     12.3143                12.9178                15.3946
 Frc consts  --      1.4802                 4.6953                 8.4861
 IR Inten    --    199.6692               170.7187                22.6150
  Atom  AN      X      Y      Z        X      Y      Z        X      Y      Z
     1   1    -0.45  -0.09   0.00     0.16   0.35   0.01    -0.16  -0.07   0.00
     2   8    -0.38  -0.03   0.00    -0.39  -0.18  -0.01    -0.40  -0.33  -0.00
     3   8    -0.40   0.25   0.00     0.21  -0.18   0.01     0.59   0.46   0.00
     4   7     0.52  -0.12  -0.00    -0.26   0.58  -0.00     0.05  -0.27   0.00
     5   8     0.35  -0.11   0.00     0.39  -0.17  -0.00    -0.22   0.11   0.00
                      7                      8                      9
                      A                      A                      A
 Frequencies --   1371.2327              1677.2978              3778.7004
 Red. masses --      1.1334                13.2086                 1.0675
 Frc consts  --      1.2556                21.8941                 8.9809
 IR Inten    --    152.9900               140.4443                82.5489
  Atom  AN      X      Y      Z        X      Y      Z        X      Y      Z
     1   1     0.77   0.63   0.01     0.27   0.21   0.00    -0.67   0.74  -0.00
     2   8     0.01  -0.06  -0.00     0.03  -0.03   0.00     0.04  -0.05   0.00
     3   8    -0.05   0.03  -0.00    -0.09   0.12  -0.00    -0.00  -0.00  -0.00
     4   7     0.02   0.00  -0.00    -0.54  -0.46   0.01     0.00  -0.00  -0.00
     5   8    -0.03  -0.01   0.00     0.52   0.30  -0.01    -0.00  -0.00   0.00

 -------------------
 - Thermochemistry -
 -------------------
 Temperature   298.150 Kelvin.  Pressure   1.00000 Atm.
 Atom     1 has atomic number  1 and mass   1.00783
 Atom     2 has atomic number  8 and mass  15.99491
 Atom     3 has atomic number  8 and mass  15.99491
 Atom     4 has atomic number  7 and mass  14.00307
 Atom     5 has atomic number  8 and mass  15.99491
 Molecular mass:    62.99564 amu.
 Principal axes and moments of inertia in atomic units:
                           1         2         3
     Eigenvalues --    32.86017 360.12292 392.93720
           X            0.99994  -0.01072   0.00022
           Y            0.01072   0.99994  -0.00048
           Z           -0.00022   0.00048   1.00000
 This molecule is an asymmetric top.
 Rotational symmetry number  1.
 Rotational temperatures (Kelvin)      2.63583     0.24051     0.22043
 Rotational constants (GHZ):          54.92185     5.01146     4.59295
    1 imaginary frequencies ignored.
 Zero-point vibrational energy      57430.9 (Joules/Mol)
                                   13.72632 (Kcal/Mol)
 Warning -- explicit consideration of   3 degrees of freedom as
           vibrations may cause significant error
 Vibrational temperatures:    329.02   491.20   649.88  1130.07  1391.67
          (Kelvin)           1972.90  2413.26  5436.71
 
 Zero-point correction=                           0.021874 (Hartree/Particle)
 Thermal correction to Energy=                    0.025992
 Thermal correction to Enthalpy=                  0.026937
 Thermal correction to Gibbs Free Energy=        -0.004249
 Sum of electronic and zero-point Energies=           -280.424838
 Sum of electronic and thermal Energies=              -280.420720
 Sum of electronic and thermal Enthalpies=            -280.419775
 Sum of electronic and thermal Free Energies=         -280.450961
 
                     E (Thermal)             CV                S
                      KCal/Mol        Cal/Mol-Kelvin    Cal/Mol-Kelvin
 Total                   16.311             11.955             65.635
 Electronic               0.000              0.000              0.000
 Translational            0.889              2.981             38.341
 Rotational               0.889              2.981             23.057
 Vibrational             14.533              5.993              4.238
 Vibration     1          0.651              1.797              1.889
 Vibration     2          0.721              1.593              1.206
 Vibration     3          0.810              1.357              0.791
                       Q            Log10(Q)             Ln(Q)
 Total Bot       0.900066D+02          1.954274          4.499883
 Total V=0       0.103690D+13         12.015737         27.667256
 Vib (Bot)       0.187624D-09         -9.726713        -22.396584
 Vib (Bot)    1  0.861784D+00         -0.064601         -0.148750
 Vib (Bot)    2  0.543402D+00         -0.264879         -0.609906
 Vib (Bot)    3  0.379139D+00         -0.421201         -0.969852
 Vib (V=0)       0.216147D+01          0.334750          0.770789
 Vib (V=0)    1  0.149633D+01          0.175027          0.403015
 Vib (V=0)    2  0.123843D+01          0.092873          0.213848
 Vib (V=0)    3  0.112749D+01          0.052114          0.119996
 Electronic      0.100000D+01          0.000000          0.000000
 Translational   0.196526D+08          7.293420         16.793719
 Rotational      0.244100D+05          4.387567         10.102747
 
                                                                title
                                                             IR Spectrum
 
     3                                                                      1         1                                              
     7                                                                      6         3             9     7          4   3   2       
     7                                                                      7         7             6     8          5   4   2       
     9                                                                      7         1             7     5          2   1   9       
 
     X                                                                      X         X             X     X          X   X   X       
     X                                                                      X         X             X     X          X               
     X                                                                      X         X                   X          X               
     X                                                                      X         X                   X          X               
     X                                                                      X         X                   X          X               
     X                                                                      X         X                   X          X               
     X                                                                      X         X                   X          X               
     X                                                                      X         X                   X          X               
                                                                            X         X                   X          X               
                                                                            X         X                   X          X               
                                                                            X         X                   X          X               
                                                                            X         X                   X          X               
                                                                            X         X                   X          X               
                                                                            X         X                   X          X               
                                                                                      X                   X          X               
                                                                                                          X          X               
                                                                                                          X          X               
                                                                                                                     X               
                                                                                                                     X               
                                                                                                                     X               
 
 ***** Axes restored to original set *****
 -------------------------------------------------------------------
 Center     Atomic                   Forces (Hartrees/Bohr)
 Number     Number              X              Y              Z
 -------------------------------------------------------------------
      1        1           0.000068380    0.000071751    0.000002458
      2        8           0.000162797    0.000441380    0.000099184
      3        8          -0.000179346   -0.000498665   -0.000041112
      4        7          -0.000445993   -0.000656157   -0.000133120
      5        8           0.000394162    0.000641691    0.000072590
 -------------------------------------------------------------------
 Cartesian Forces:  Max     0.000656157 RMS     0.000340889
 -----------------------------------------------------------------------------------------------
                       Internal Coordinate Forces (Hartree/Bohr or radian)
  Cent   Atom   N1       Length/X         N2         Alpha/Y        N3         Beta/Z          J
 -----------------------------------------------------------------------------------------------
      1  H 
      2  O        1  -0.000002(     1)
      3  O        2  -0.000243(     2)      1  -0.000125(     5)
      4  N        3  -0.000065(     3)      2  -0.000068(     6)      1  -0.000130(     8)     0
      5  O        4   0.000379(     4)      3  -0.000045(     7)      2   0.001368(     9)     0
 -----------------------------------------------------------------------------------------------
 Internal  Forces:  Max     0.001367930 RMS     0.000485049
 Force constants in Cartesian coordinates: 
                1             2             3             4             5 
      1  0.646454D-01
      2  0.108260D-03 -0.236342D-02
      3  0.530557D-02 -0.246435D-04  0.512361D+00
      4 -0.357986D-01 -0.229033D-03 -0.163064D-01  0.272818D+00
      5 -0.108705D-03  0.305796D-02  0.332817D-04 -0.690722D-04  0.209992D-02
      6  0.482503D-01  0.828919D-04 -0.508533D+00  0.335153D-01  0.261103D-04
      7 -0.183536D-01  0.115813D-03  0.125397D-01 -0.220273D+00  0.321345D-03
      8 -0.207101D-03  0.995728D-03 -0.325355D-05  0.216143D-03 -0.657698D-02
      9 -0.531707D-01 -0.566709D-04 -0.482986D-03 -0.194544D-01 -0.636356D-03
     10 -0.925450D-02 -0.168833D-04 -0.487160D-02 -0.171108D-01 -0.315550D-03
     11  0.156283D-03 -0.271978D-02  0.913757D-04  0.275605D-03 -0.491199D-02
     12  0.536614D-02 -0.157647D-04 -0.474880D-02  0.115339D-01  0.579202D-03
     13 -0.123860D-02  0.218428D-04  0.333268D-02  0.364843D-03  0.171983D-03
     14  0.512635D-04  0.102951D-02 -0.967603D-04 -0.193643D-03  0.633108D-02
     15 -0.575128D-02  0.141871D-04  0.140326D-02 -0.928838D-02 -0.223804D-05
                6             7             8             9            10 
      6  0.594609D+00
      7 -0.211879D-01  0.341545D+00
      8 -0.900503D-03 -0.268245D-02  0.427416D-02
      9 -0.785635D-01  0.359550D-01  0.122124D-02  0.181148D+00
     10 -0.524857D-01 -0.780983D-01  0.245898D-02  0.174891D+00  0.827702D+00
     11  0.473368D-03  0.135232D-02  0.846935D-02 -0.419382D-02 -0.251240D-01
     12  0.171466D-01  0.630306D-01 -0.286048D-02 -0.817656D-01 -0.178864D-01
     13 -0.809202D-02 -0.248197D-01  0.214431D-03 -0.138221D+00 -0.723238D+00
     14  0.318133D-03  0.892969D-03 -0.716226D-02  0.366561D-02  0.229975D-01
     15 -0.246596D-01 -0.903375D-01  0.254300D-02 -0.203357D-01 -0.996475D-01
               11            12            13            14            15 
     11  0.933392D-02
     12 -0.193861D-03  0.186585D+00
     13  0.233398D-01 -0.620442D-01  0.748932D+00
     14 -0.101715D-01  0.249091D-02 -0.237481D-01  0.997318D-02
     15  0.382294D-02 -0.117217D+00  0.205025D+00 -0.637788D-02  0.160809D+00
 Force constants in internal coordinates: 
                1             2             3             4             5 
      1  0.512361D+00
      2 -0.103983D-01  0.281334D+00
      3  0.346044D-02  0.247912D-02  0.117234D+00
      4 -0.357801D-02  0.590662D-02  0.153058D+00  0.812052D+00
      5  0.978333D-02  0.653192D-01  0.227836D-02  0.481227D-02  0.216748D+00
      6  0.464797D-02  0.591335D-01  0.409555D-01  0.218320D-01  0.313150D-01
      7 -0.117690D-02  0.377193D-01  0.322052D-01  0.847160D-01  0.213254D-01
      8  0.263898D-04 -0.203330D-03  0.225880D-05  0.138136D-04  0.341897D-03
      9 -0.209802D-04  0.234896D-03  0.151022D-02 -0.108990D-03 -0.990946D-04
                6             7             8             9 
      6  0.282640D+00
      7  0.958374D-01  0.482713D+00
      8  0.830400D-05 -0.786884D-04 -0.777328D-02
      9 -0.722528D-03  0.251678D-03 -0.390707D-02  0.410325D-01
 Leave Link  716 at Mon Feb 21 21:17:26 2022, MaxMem= 16106127360 cpu:               0.7 elap:               0.0
 (Enter /sw/contrib/gaussian/g16/B01/g16/l103.exe)

 GradGradGradGradGradGradGradGradGradGradGradGradGradGradGradGradGradGrad
 Berny optimization.
 Search for a local minimum.
 Step number   1 out of a maximum of    2
 All quantities printed in internal units (Hartrees-Bohrs-Radians)
 Second derivative matrix not updated -- analytic derivatives used.
 The second derivative matrix:
                          r1        r2        r3        r4        a1
           r1           0.51236
           r2          -0.01040   0.28133
           r3           0.00346   0.00248   0.11723
           r4          -0.00358   0.00591   0.15306   0.81205
           a1           0.00978   0.06532   0.00228   0.00481   0.21675
           a2           0.00465   0.05913   0.04096   0.02183   0.03132
           a3          -0.00118   0.03772   0.03221   0.08472   0.02133
           d1           0.00003  -0.00020   0.00000   0.00001   0.00034
           d2          -0.00002   0.00023   0.00151  -0.00011  -0.00010
                          a2        a3        d1        d2
           a2           0.28264
           a3           0.09584   0.48271
           d1           0.00001  -0.00008  -0.00777
           d2          -0.00072   0.00025  -0.00391   0.04103
 ITU=  0
     Eigenvalues ---   -0.00809   0.04127   0.07836   0.17533   0.22517
     Eigenvalues ---    0.32505   0.51299   0.51728   0.87097
 Eigenvalue     1 is  -8.09D-03 should be greater than     0.000000 Eigenvector:
                          d1        d2        a1        r3        r2
   1                    0.99685   0.07933  -0.00181  -0.00138   0.00097
                          a2        r4        a3        r1
   1                    0.00030   0.00023   0.00011   0.00001
 Angle between quadratic step and forces=  17.37 degrees.
 Linear search not attempted -- first point.
 Variable       Old X    -DE/DX   Delta X   Delta X   Delta X     New X
                                 (Linear)    (Quad)   (Total)
    r1        1.83110  -0.00000   0.00000   0.00000   0.00000   1.83110
    r2        2.74940  -0.00024   0.00000  -0.00088  -0.00088   2.74852
    r3        2.75670  -0.00006   0.00000  -0.00222  -0.00222   2.75448
    r4        2.21236   0.00038   0.00000   0.00090   0.00090   2.21326
    a1        1.70335  -0.00013   0.00000  -0.00033  -0.00033   1.70303
    a2        1.78543  -0.00007   0.00000   0.00035   0.00035   1.78578
    a3        1.90362  -0.00005   0.00000  -0.00011  -0.00011   1.90351
    d1        3.14159  -0.00013   0.00000  -0.00522  -0.00522   3.13637
    d2        3.10830   0.00137   0.00000   0.03302   0.03302   3.14131
         Item               Value     Threshold  Converged?
 Maximum Force            0.001368     0.000450     NO 
 RMS     Force            0.000485     0.000300     NO 
 Maximum Displacement     0.033016     0.001800     NO 
 RMS     Displacement     0.011176     0.001200     NO 
 Predicted change in Energy=-2.333550D-05
                       ----------------------------
                       ! Non-Optimized Parameters !
                       ! (Angstroms and Degrees)  !
 ----------------------                            ----------------------
 !      Name          Value   Derivative information (Atomic Units)     !
 ------------------------------------------------------------------------
 !       r1          0.969    -DE/DX =    0.0                           !
 !       r2          1.4545   -DE/DX =   -0.0002                        !
 !       r3          1.4576   -DE/DX =   -0.0001                        !
 !       r4          1.1712   -DE/DX =    0.0004                        !
 !       a1         97.5762   -DE/DX =   -0.0001                        !
 !       a2        102.3178   -DE/DX =   -0.0001                        !
 !       a3        109.0633   -DE/DX =    0.0                           !
 !       d1        179.7006   -DE/DX =   -0.0001                        !
 !       d2        179.984    -DE/DX =    0.0014                        !
 ------------------------------------------------------------------------
 GradGradGradGradGradGradGradGradGradGradGradGradGradGradGradGradGradGrad

 Leave Link  103 at Mon Feb 21 21:17:26 2022, MaxMem= 16106127360 cpu:               0.5 elap:               0.0
 (Enter /sw/contrib/gaussian/g16/B01/g16/l9999.exe)

 ----------------------------------------------------------------------

 Electric dipole moment (input orientation):
 (Debye = 10**-18 statcoulomb cm , SI units = C m)
                  (au)            (Debye)         (10**-30 SI)
   Tot        0.571364D+00      0.145226D+01      0.484423D+01
   x         -0.146374D+00     -0.372046D+00     -0.124101D+01
   y          0.143083D-02      0.363681D-02      0.121311D-01
   z         -0.552295D+00     -0.140379D+01     -0.468255D+01

 Dipole polarizability, Alpha (input orientation).
 (esu units = cm**3 , SI units = C**2 m**2 J**-1)
 Alpha(0;0):
               (au)            (10**-24 esu)      (10**-40 SI)
   iso        0.273928D+02      0.405920D+01      0.451647D+01
   aniso      0.219322D+02      0.325002D+01      0.361614D+01
   xx         0.321088D+02      0.475803D+01      0.529402D+01
   yx        -0.211024D+00     -0.312705D-01     -0.347931D-01
   yy         0.179333D+02      0.265744D+01      0.295680D+01
   zx         0.965218D+01      0.143030D+01      0.159143D+01
   zy        -0.140272D+00     -0.207861D-01     -0.231277D-01
   zz         0.321365D+02      0.476213D+01      0.529858D+01

 ----------------------------------------------------------------------

 Dipole orientation:
     1          0.00000000          0.00000000         -0.00000000
     8         -0.46909680         -0.00458550         -1.76998549
     8          2.07214150         -0.00638453         -2.81941377
     7          1.58675923         -0.01333845         -5.53303930
     8          3.51660942          0.05419458         -6.61268765

 Electric dipole moment (dipole orientation):
 (Debye = 10**-18 statcoulomb cm , SI units = C m)
                  (au)            (Debye)         (10**-30 SI)
   Tot        0.571364D+00      0.145226D+01      0.484423D+01
   x          0.000000D+00      0.000000D+00      0.000000D+00
   y          0.000000D+00      0.000000D+00      0.000000D+00
   z          0.571364D+00      0.145226D+01      0.484423D+01

 Dipole polarizability, Alpha (dipole orientation).
 (esu units = cm**3 , SI units = C**2 m**2 J**-1)
 Alpha(0;0):
               (au)            (10**-24 esu)      (10**-40 SI)
   iso        0.273928D+02      0.405920D+01      0.451647D+01
   aniso      0.219322D+02      0.325002D+01      0.361614D+01
   xx         0.273301D+02      0.404990D+01      0.450612D+01
   yx         0.150130D+00      0.222469D-01      0.247531D-01
   yy         0.179326D+02      0.265733D+01      0.295668D+01
   zx        -0.837872D+01     -0.124160D+01     -0.138146D+01
   zy        -0.144848D+00     -0.214642D-01     -0.238822D-01
   zz         0.369159D+02      0.547037D+01      0.608661D+01

 ----------------------------------------------------------------------
 1\1\GINC-N2108\Freq\RMP2-FC\Aug-CC-pVTZ\H1N1O3\CGAVINH\21-Feb-2022\1\\
 #p freq mp2/aug-cc-pvtz density=current\\title\\0,1\H\O,1,r1\O,2,r2,1,
 a1\N,3,r3,2,a2,1,d1,0\O,4,r4,3,a3,2,d2,0\\r1=0.96897556\r2=1.45491931\
 r3=1.45878406\r4=1.17072885\a1=97.59494903\a2=102.29752444\a3=109.0695
 5123\d1=180.\d2=178.09229069\\Version=ES64L-G16RevB.01\State=1-A\HF=-2
 79.5016728\MP2=-280.446712\RMSD=5.304e-09\RMSF=3.409e-04\ZeroPoint=0.0
 218743\Thermal=0.0259925\Dipole=-0.146374,0.0014308,-0.5522951\DipoleD
 eriv=0.2663689,0.0002847,0.0482756,-0.0006659,0.3555562,-0.0008396,0.0
 82138,-0.0003366,0.2755945,-0.3280059,0.0015961,-0.2068735,-0.0014054,
 -0.3141723,-0.0015808,-0.1110738,0.0018184,-0.2225021,-0.0464312,0.002
 8451,0.1478684,0.0036823,-0.0869781,-0.0003647,-0.7521218,0.0143708,-1
 .3535003,0.8941117,-0.0221033,0.9090432,-0.0240206,0.0666515,-0.023033
 1,0.9225607,-0.0172406,1.6692598,-0.7860435,0.0173773,-0.8983136,0.022
 4096,-0.0210573,0.0258182,-0.1415031,0.001388,-0.3688519\Polar=32.1087
 711,-0.2110238,17.9333032,9.6521753,-0.1402719,32.1364505\Quadrupole=-
 1.5122032,-0.7290149,2.241218,0.0424801,2.0945042,-0.0143587\PG=C01 [X
 (H1N1O3)]\NImag=1\\0.06464535,0.00010826,-0.00236342,0.00530557,-0.000
 02464,0.51236127,-0.03579864,-0.00022903,-0.01630635,0.27281807,-0.000
 10871,0.00305796,0.00003328,-0.00006907,0.00209992,0.04825030,0.000082
 89,-0.50853276,0.03351527,0.00002611,0.59460931,-0.01835362,0.00011581
 ,0.01253970,-0.22027343,0.00032134,-0.02118787,0.34154503,-0.00020710,
 0.00099573,-0.00000325,0.00021614,-0.00657698,-0.00090050,-0.00268245,
 0.00427416,-0.05317074,-0.00005667,-0.00048299,-0.01945444,-0.00063636
 ,-0.07856351,0.03595499,0.00122124,0.18114783,-0.00925450,-0.00001688,
 -0.00487160,-0.01711085,-0.00031555,-0.05248568,-0.07809826,0.00245898
 ,0.17489119,0.82770198,0.00015628,-0.00271978,0.00009138,0.00027560,-0
 .00491199,0.00047337,0.00135232,0.00846935,-0.00419382,-0.02512404,0.0
 0933392,0.00536614,-0.00001576,-0.00474880,0.01153390,0.00057920,0.017
 14657,0.06303064,-0.00286048,-0.08176559,-0.01788644,-0.00019386,0.186
 58489,-0.00123860,0.00002184,0.00333268,0.00036484,0.00017198,-0.00809
 202,-0.02481971,0.00021443,-0.13822101,-0.72323837,0.02333983,-0.06204
 425,0.74893184,0.00005126,0.00102951,-0.00009676,-0.00019364,0.0063310
 8,0.00031813,0.00089297,-0.00716226,0.00366561,0.02299750,-0.01017151,
 0.00249091,-0.02374809,0.00997318,-0.00575128,0.00001419,0.00140326,-0
 .00928838,-0.00000224,-0.02465962,-0.09033746,0.00254300,-0.02033574,-
 0.09964747,0.00382294,-0.11721707,0.20502459,-0.00637788,0.16080917\\-
 0.00006838,-0.00007175,-0.00000246,-0.00016280,-0.00044138,-0.00009918
 ,0.00017935,0.00049867,0.00004111,0.00044599,0.00065616,0.00013312,-0.
 00039416,-0.00064169,-0.00007259\\\@


       THE DEATH-KNELL OF THE ATOM

 SO THE ATOMS IN TURN, WE NOW CLEARLY DISCERN,
 FLY TO BITS WITH THE UTMOST FACILITY;
 THEY WEND ON THEIR WAY, AND, IN SPLITTING, DISPLAY
 AN ABSOLUTE LACK OF STABILITY.

          SIR WM. RAMSAY, 1905
 Job cpu time:       0 days  2 hours  1 minutes  4.0 seconds.
 Elapsed time:       0 days  0 hours  4 minutes 26.2 seconds.
 File lengths (MBytes):  RWF=   7239 Int=      0 D2E=      0 Chk=      8 Scr=      1
 Normal termination of Gaussian 16 at Mon Feb 21 21:17:27 2022.
