 Entering Gaussian System, Link 0=g16
 Input=hoono_d2_-3p32021.gjf
 Output=hoono_d2_-3p32021.log
 Initial command:
 /sw/contrib/gaussian/g16/B01/g16/l1.exe "/scr/Gau-10683.inp" -scrdir="/scr/"
 Entering Link 1 = /sw/contrib/gaussian/g16/B01/g16/l1.exe PID=     10684.
  
 Copyright (c) 1988-2017, Gaussian, Inc.  All Rights Reserved.
  
 This is part of the Gaussian(R) 16 program.  It is based on
 the Gaussian(R) 09 system (copyright 2009, Gaussian, Inc.),
 the Gaussian(R) 03 system (copyright 2003, Gaussian, Inc.),
 the Gaussian(R) 98 system (copyright 1998, Gaussian, Inc.),
 the Gaussian(R) 94 system (copyright 1995, Gaussian, Inc.),
 the Gaussian 92(TM) system (copyright 1992, Gaussian, Inc.),
 the Gaussian 90(TM) system (copyright 1990, Gaussian, Inc.),
 the Gaussian 88(TM) system (copyright 1988, Gaussian, Inc.),
 the Gaussian 86(TM) system (copyright 1986, Carnegie Mellon
 University), and the Gaussian 82(TM) system (copyright 1983,
 Carnegie Mellon University). Gaussian is a federally registered
 trademark of Gaussian, Inc.
  
 This software contains proprietary and confidential information,
 including trade secrets, belonging to Gaussian, Inc.
  
 This software is provided under written license and may be
 used, copied, transmitted, or stored only in accord with that
 written license.
  
 The following legend is applicable only to US Government
 contracts under FAR:
  
                    RESTRICTED RIGHTS LEGEND
  
 Use, reproduction and disclosure by the US Government is
 subject to restrictions as set forth in subparagraphs (a)
 and (c) of the Commercial Computer Software - Restricted
 Rights clause in FAR 52.227-19.
  
 Gaussian, Inc.
 340 Quinnipiac St., Bldg. 40, Wallingford CT 06492
  
  
 ---------------------------------------------------------------
 Warning -- This program may not be used in any manner that
 competes with the business of Gaussian, Inc. or will provide
 assistance to any competitor of Gaussian, Inc.  The licensee
 of this program is prohibited from giving any competitor of
 Gaussian, Inc. access to this program.  By using this program,
 the user acknowledges that Gaussian, Inc. is engaged in the
 business of creating and licensing software in the field of
 computational chemistry and represents and warrants to the
 licensee that it is not a competitor of Gaussian, Inc. and that
 it will not use this program in any manner prohibited above.
 ---------------------------------------------------------------
  

 Cite this work as:
 Gaussian 16, Revision B.01,
 M. J. Frisch, G. W. Trucks, H. B. Schlegel, G. E. Scuseria, 
 M. A. Robb, J. R. Cheeseman, G. Scalmani, V. Barone, 
 G. A. Petersson, H. Nakatsuji, X. Li, M. Caricato, A. V. Marenich, 
 J. Bloino, B. G. Janesko, R. Gomperts, B. Mennucci, H. P. Hratchian, 
 J. V. Ortiz, A. F. Izmaylov, J. L. Sonnenberg, D. Williams-Young, 
 F. Ding, F. Lipparini, F. Egidi, J. Goings, B. Peng, A. Petrone, 
 T. Henderson, D. Ranasinghe, V. G. Zakrzewski, J. Gao, N. Rega, 
 G. Zheng, W. Liang, M. Hada, M. Ehara, K. Toyota, R. Fukuda, 
 J. Hasegawa, M. Ishida, T. Nakajima, Y. Honda, O. Kitao, H. Nakai, 
 T. Vreven, K. Throssell, J. A. Montgomery, Jr., J. E. Peralta, 
 F. Ogliaro, M. J. Bearpark, J. J. Heyd, E. N. Brothers, K. N. Kudin, 
 V. N. Staroverov, T. A. Keith, R. Kobayashi, J. Normand, 
 K. Raghavachari, A. P. Rendell, J. C. Burant, S. S. Iyengar, 
 J. Tomasi, M. Cossi, J. M. Millam, M. Klene, C. Adamo, R. Cammi, 
 J. W. Ochterski, R. L. Martin, K. Morokuma, O. Farkas, 
 J. B. Foresman, and D. J. Fox, Gaussian, Inc., Wallingford CT, 2016.
 
 ******************************************
 Gaussian 16:  ES64L-G16RevB.01 20-Dec-2017
                 6-Mar-2022 
 ******************************************
 %nproc=28
 Will use up to   28 processors via shared memory.
 %mem=120GB
 %chk=hoono_d2_-3p32021.chk
 ---------------------------------------
 #p freq mp2/aug-cc-pvtz density=current
 ---------------------------------------
 1/10=4,30=1,38=1/1,3;
 2/12=2,17=6,18=5,40=1/2;
 3/5=16,6=1,7=10,11=9,25=1,30=1,71=2,140=1/1,2,3;
 4//1;
 5/5=2,38=5,98=1/2;
 8/6=3,8=1,10=1,19=11,30=-1/1;
 9/15=3,16=-3/6;
 11/6=1,8=1,15=11,17=12,24=-1,27=1,28=-2,29=300,32=6,42=3/1,2,10;
 10/6=2,21=1/2;
 8/6=4,8=1,10=1,19=11,30=-1/11,4;
 10/5=1,20=4/2;
 11/12=2,14=11,16=1,17=2,28=-2,42=3,76=2/2,10,12;
 6/7=2,8=2,9=2,10=2,22=-1/1;
 7/8=1,10=1,12=2,25=1,44=2/1,2,3,16;
 1/10=4,30=1/3;
 99//99;
 Leave Link    1 at Sun Mar  6 20:02:43 2022, MaxMem= 16106127360 cpu:               6.9 elap:               0.3
 (Enter /sw/contrib/gaussian/g16/B01/g16/l101.exe)
 -----
 title
 -----
 Symbolic Z-matrix:
 Charge =  0 Multiplicity = 1
 H
 O                    1    r1
 O                    2    r2       1    a1
 N                    3    r3       2    a2       1    d1       0
 O                    4    r4       3    a3       2    d2       0
       Variables:
  r1                    0.98538                  
  r2                    1.42674                  
  r3                    1.38111                  
  r4                    1.19479                  
  a1                  100.63551                  
  a2                  113.13777                  
  a3                  114.33392                  
  d1                    0.                       
  d2                   -3.32022                  
 
 ITRead=  0  0  0  0  0
 MicOpt= -1 -1 -1 -1 -1
 NAtoms=      5 NQM=        5 NQMF=       0 NMMI=      0 NMMIF=      0
                NMic=       0 NMicF=      0.
                    Isotopes and Nuclear Properties:
 (Nuclear quadrupole moments (NQMom) in fm**2, nuclear magnetic moments (NMagM)
  in nuclear magnetons)

  Atom         1           2           3           4           5
 IAtWgt=           1          16          16          14          16
 AtmWgt=   1.0078250  15.9949146  15.9949146  14.0030740  15.9949146
 NucSpn=           1           0           0           2           0
 AtZEff=  -0.0000000  -0.0000000  -0.0000000  -0.0000000  -0.0000000
 NQMom=    0.0000000   0.0000000   0.0000000   2.0440000   0.0000000
 NMagM=    2.7928460   0.0000000   0.0000000   0.4037610   0.0000000
 AtZNuc=   1.0000000   8.0000000   8.0000000   7.0000000   8.0000000
 Leave Link  101 at Sun Mar  6 20:02:43 2022, MaxMem= 16106127360 cpu:               3.6 elap:               0.2
 (Enter /sw/contrib/gaussian/g16/B01/g16/l103.exe)

 GradGradGradGradGradGradGradGradGradGradGradGradGradGradGradGradGradGrad
 Berny optimization.
 Initialization pass.
                       ----------------------------
                       !    Initial Parameters    !
                       ! (Angstroms and Degrees)  !
 ----------------------                            ----------------------
 !      Name          Value   Derivative information (Atomic Units)     !
 ------------------------------------------------------------------------
 !       r1          0.9854   calculate D2E/DX2 analytically            !
 !       r2          1.4267   calculate D2E/DX2 analytically            !
 !       r3          1.3811   calculate D2E/DX2 analytically            !
 !       r4          1.1948   calculate D2E/DX2 analytically            !
 !       a1        100.6355   calculate D2E/DX2 analytically            !
 !       a2        113.1378   calculate D2E/DX2 analytically            !
 !       a3        114.3339   calculate D2E/DX2 analytically            !
 !       d1          0.0      calculate D2E/DX2 analytically            !
 !       d2         -3.3202   calculate D2E/DX2 analytically            !
 ------------------------------------------------------------------------
 Trust Radius=3.00D-01 FncErr=1.00D-07 GrdErr=1.00D-07 EigMax=2.50D+02 EigMin=1.00D-04
 Number of steps in this run=      2 maximum allowed number of steps=      2.
 GradGradGradGradGradGradGradGradGradGradGradGradGradGradGradGradGradGrad

 Leave Link  103 at Sun Mar  6 20:02:43 2022, MaxMem= 16106127360 cpu:               0.9 elap:               0.1
 (Enter /sw/contrib/gaussian/g16/B01/g16/l202.exe)
                          Input orientation:                          
 ---------------------------------------------------------------------
 Center     Atomic      Atomic             Coordinates (Angstroms)
 Number     Number       Type             X           Y           Z
 ---------------------------------------------------------------------
      1          1           0        0.000000    0.000000    0.000000
      2          8           0        0.000000    0.000000    0.985377
      3          8           0        1.402227    0.000000    1.248696
      4          7           0        2.169996    0.000000    0.100659
      5          8           0        1.540270   -0.063050   -0.912746
 ---------------------------------------------------------------------
                    Distance matrix (angstroms):
                    1          2          3          4          5
     1  H    0.000000
     2  O    0.985377   0.000000
     3  O    1.877627   1.426737   0.000000
     4  N    2.172329   2.343418   1.381108   0.000000
     5  O    1.791511   2.445256   2.166763   1.194788   0.000000
 Stoichiometry    HNO3
 Framework group  C1[X(HNO3)]
 Deg. of freedom     9
 Full point group                 C1      NOp   1
 Largest Abelian subgroup         C1      NOp   1
 Largest concise Abelian subgroup C1      NOp   1
                         Standard orientation:                         
 ---------------------------------------------------------------------
 Center     Atomic      Atomic             Coordinates (Angstroms)
 Number     Number       Type             X           Y           Z
 ---------------------------------------------------------------------
      1          1           0        0.540626   -1.138372    0.032950
      2          8           0        1.277155   -0.484445    0.003425
      3          8           0        0.542837    0.738712   -0.012155
      4          7           0       -0.825105    0.550880    0.018034
      5          8           0       -1.165603   -0.593990   -0.011168
 ---------------------------------------------------------------------
 Rotational constants (GHZ):          21.3591161           8.1019789           5.8752667
 Leave Link  202 at Sun Mar  6 20:02:43 2022, MaxMem= 16106127360 cpu:               1.0 elap:               0.1
 (Enter /sw/contrib/gaussian/g16/B01/g16/l301.exe)
 Standard basis: Aug-CC-pVTZ (5D, 7F)
 Ernie: Thresh=  0.10000D-02 Tol=  0.10000D-05 Strict=F.
 Ernie:  12 primitive shells out of 131 were deleted.
 There are   245 symmetry adapted cartesian basis functions of A   symmetry.
 There are   207 symmetry adapted basis functions of A   symmetry.
   207 basis functions,   315 primitive gaussians,   245 cartesian basis functions
    16 alpha electrons       16 beta electrons
       nuclear repulsion energy       122.7422612187 Hartrees.
 IExCor=    0 DFT=F Ex=HF Corr=None ExCW=0 ScaHFX=  1.000000
 ScaDFX=  1.000000  1.000000  1.000000  1.000000 ScalE2=  1.000000  1.000000
 IRadAn=      5 IRanWt=     -1 IRanGd=            0 ICorTp=0 IEmpDi=  4
 NAtoms=    5 NActive=    5 NUniq=    5 SFac= 1.00D+00 NAtFMM=   60 NAOKFM=F Big=F
 Integral buffers will be    131072 words long.
 Raffenetti 1 integral format.
 Two-electron integral symmetry is turned on.
 Leave Link  301 at Sun Mar  6 20:02:44 2022, MaxMem= 16106127360 cpu:               1.6 elap:               0.1
 (Enter /sw/contrib/gaussian/g16/B01/g16/l302.exe)
 NPDir=0 NMtPBC=     1 NCelOv=     1 NCel=       1 NClECP=     1 NCelD=      1
         NCelK=      1 NCelE2=     1 NClLst=     1 CellRange=     0.0.
 One-electron integrals computed using PRISM.
 One-electron integral symmetry used in STVInt
 NBasis=   207 RedAO= T EigKep=  1.31D-04  NBF=   207
 NBsUse=   207 1.00D-06 EigRej= -1.00D+00 NBFU=   207
 Leave Link  302 at Sun Mar  6 20:02:44 2022, MaxMem= 16106127360 cpu:               4.8 elap:               0.2
 (Enter /sw/contrib/gaussian/g16/B01/g16/l303.exe)
 DipDrv:  MaxL=1.
 Leave Link  303 at Sun Mar  6 20:02:44 2022, MaxMem= 16106127360 cpu:               0.8 elap:               0.1
 (Enter /sw/contrib/gaussian/g16/B01/g16/l401.exe)
 ExpMin= 2.53D-02 ExpMax= 1.53D+04 ExpMxC= 5.22D+02 IAcc=3 IRadAn=         5 AccDes= 0.00D+00
 Harris functional with IExCor=  205 and IRadAn=       5 diagonalized for initial guess.
 HarFok:  IExCor=  205 AccDes= 0.00D+00 IRadAn=         5 IDoV= 1 UseB2=F ITyADJ=14
 ICtDFT=  3500011 ScaDFX=  1.000000  1.000000  1.000000  1.000000
 FoFCou: FMM=F IPFlag=           0 FMFlag=      100000 FMFlg1=           0
         NFxFlg=           0 DoJE=T BraDBF=F KetDBF=T FulRan=T
         wScrn=  0.000000 ICntrl=       500 IOpCl=  0 I1Cent=   200000004 NGrid=           0
         NMat0=    1 NMatS0=      1 NMatT0=    0 NMatD0=    1 NMtDS0=    0 NMtDT0=    0
 Petite list used in FoFCou.
 Harris En= -279.644809959918    
 JPrj=0 DoOrth=F DoCkMO=F.
 Leave Link  401 at Sun Mar  6 20:02:44 2022, MaxMem= 16106127360 cpu:               7.4 elap:               0.3
 (Enter /sw/contrib/gaussian/g16/B01/g16/l502.exe)
 Keep R1 ints in memory in canonical form, NReq=245623665.
 FoFCou: FMM=F IPFlag=           0 FMFlag=           0 FMFlg1=           0
         NFxFlg=           0 DoJE=F BraDBF=F KetDBF=F FulRan=T
         wScrn=  0.000000 ICntrl=       600 IOpCl=  0 I1Cent=           0 NGrid=           0
         NMat0=    1 NMatS0=  21528 NMatT0=    0 NMatD0=    1 NMtDS0=    0 NMtDT0=    0
 Symmetry not used in FoFCou.
 Two-electron integral symmetry not used.
 Closed shell SCF:
 Using DIIS extrapolation, IDIIS=  1040.
 NGot= 16106127360 LenX= 15874260251 LenY= 15874199785
 Requested convergence on RMS density matrix=1.00D-08 within 128 cycles.
 Requested convergence on MAX density matrix=1.00D-06.
 Requested convergence on             energy=1.00D-06.
 No special actions if energy rises.

 Cycle   1  Pass 1  IDiag  1:
 E= -279.364073474876    
 DIIS: error= 2.67D-02 at cycle   1 NSaved=   1.
 NSaved= 1 IEnMin= 1 EnMin= -279.364073474876     IErMin= 1 ErrMin= 2.67D-02
 ErrMax= 2.67D-02  0.00D+00 EMaxC= 1.00D-01 BMatC= 4.51D-01 BMatP= 4.51D-01
 IDIUse=3 WtCom= 7.33D-01 WtEn= 2.67D-01
 Coeff-Com:  0.100D+01
 Coeff-En:   0.100D+01
 Coeff:      0.100D+01
 Gap=     0.519 Goal=   None    Shift=    0.000
 GapD=    0.519 DampG=2.000 DampE=0.500 DampFc=1.0000 IDamp=-1.
 RMSDP=1.68D-03 MaxDP=8.78D-02              OVMax= 1.23D-01

 Cycle   2  Pass 1  IDiag  1:
 E= -279.446138254057     Delta-E=       -0.082064779181 Rises=F Damp=F
 DIIS: error= 1.89D-02 at cycle   2 NSaved=   2.
 NSaved= 2 IEnMin= 2 EnMin= -279.446138254057     IErMin= 2 ErrMin= 1.89D-02
 ErrMax= 1.89D-02  0.00D+00 EMaxC= 1.00D-01 BMatC= 8.59D-02 BMatP= 4.51D-01
 IDIUse=3 WtCom= 8.11D-01 WtEn= 1.89D-01
 Coeff-Com:  0.218D+00 0.782D+00
 Coeff-En:   0.767D-01 0.923D+00
 Coeff:      0.192D+00 0.808D+00
 Gap=     0.586 Goal=   None    Shift=    0.000
 RMSDP=9.66D-04 MaxDP=3.67D-02 DE=-8.21D-02 OVMax= 9.11D-02

 Cycle   3  Pass 1  IDiag  1:
 E= -279.483978823125     Delta-E=       -0.037840569068 Rises=F Damp=F
 DIIS: error= 8.68D-03 at cycle   3 NSaved=   3.
 NSaved= 3 IEnMin= 3 EnMin= -279.483978823125     IErMin= 3 ErrMin= 8.68D-03
 ErrMax= 8.68D-03  0.00D+00 EMaxC= 1.00D-01 BMatC= 3.08D-02 BMatP= 8.59D-02
 IDIUse=3 WtCom= 9.13D-01 WtEn= 8.68D-02
 Coeff-Com: -0.347D-01 0.364D+00 0.671D+00
 Coeff-En:   0.000D+00 0.217D+00 0.783D+00
 Coeff:     -0.317D-01 0.351D+00 0.681D+00
 Gap=     0.541 Goal=   None    Shift=    0.000
 RMSDP=4.06D-04 MaxDP=1.57D-02 DE=-3.78D-02 OVMax= 3.79D-02

 Cycle   4  Pass 1  IDiag  1:
 E= -279.505055306301     Delta-E=       -0.021076483177 Rises=F Damp=F
 DIIS: error= 1.60D-03 at cycle   4 NSaved=   4.
 NSaved= 4 IEnMin= 4 EnMin= -279.505055306301     IErMin= 4 ErrMin= 1.60D-03
 ErrMax= 1.60D-03  0.00D+00 EMaxC= 1.00D-01 BMatC= 5.59D-04 BMatP= 3.08D-02
 IDIUse=3 WtCom= 9.84D-01 WtEn= 1.60D-02
 Coeff-Com: -0.119D-01 0.485D-01 0.149D+00 0.815D+00
 Coeff-En:   0.000D+00 0.000D+00 0.000D+00 0.100D+01
 Coeff:     -0.117D-01 0.477D-01 0.147D+00 0.817D+00
 Gap=     0.528 Goal=   None    Shift=    0.000
 RMSDP=9.85D-05 MaxDP=2.40D-03 DE=-2.11D-02 OVMax= 1.16D-02

 Cycle   5  Pass 1  IDiag  1:
 E= -279.505842105102     Delta-E=       -0.000786798801 Rises=F Damp=F
 DIIS: error= 1.08D-03 at cycle   5 NSaved=   5.
 NSaved= 5 IEnMin= 5 EnMin= -279.505842105102     IErMin= 5 ErrMin= 1.08D-03
 ErrMax= 1.08D-03  0.00D+00 EMaxC= 1.00D-01 BMatC= 1.02D-04 BMatP= 5.59D-04
 IDIUse=3 WtCom= 9.89D-01 WtEn= 1.08D-02
 Coeff-Com:  0.538D-02-0.658D-01-0.111D+00 0.594D-01 0.111D+01
 Coeff-En:   0.000D+00 0.000D+00 0.000D+00 0.000D+00 0.100D+01
 Coeff:      0.532D-02-0.650D-01-0.110D+00 0.588D-01 0.111D+01
 Gap=     0.532 Goal=   None    Shift=    0.000
 RMSDP=7.98D-05 MaxDP=2.12D-03 DE=-7.87D-04 OVMax= 1.28D-02

 Cycle   6  Pass 1  IDiag  1:
 E= -279.506204182698     Delta-E=       -0.000362077596 Rises=F Damp=F
 DIIS: error= 3.28D-04 at cycle   6 NSaved=   6.
 NSaved= 6 IEnMin= 6 EnMin= -279.506204182698     IErMin= 6 ErrMin= 3.28D-04
 ErrMax= 3.28D-04  0.00D+00 EMaxC= 1.00D-01 BMatC= 2.40D-05 BMatP= 1.02D-04
 IDIUse=3 WtCom= 9.97D-01 WtEn= 3.28D-03
 Coeff-Com:  0.188D-02-0.748D-02-0.168D-01-0.184D+00 0.137D-01 0.119D+01
 Coeff-En:   0.000D+00 0.000D+00 0.000D+00 0.000D+00 0.000D+00 0.100D+01
 Coeff:      0.188D-02-0.745D-02-0.167D-01-0.183D+00 0.136D-01 0.119D+01
 Gap=     0.532 Goal=   None    Shift=    0.000
 RMSDP=4.66D-05 MaxDP=1.07D-03 DE=-3.62D-04 OVMax= 6.10D-03

 Cycle   7  Pass 1  IDiag  1:
 E= -279.506289945803     Delta-E=       -0.000085763105 Rises=F Damp=F
 DIIS: error= 1.07D-04 at cycle   7 NSaved=   7.
 NSaved= 7 IEnMin= 7 EnMin= -279.506289945803     IErMin= 7 ErrMin= 1.07D-04
 ErrMax= 1.07D-04  0.00D+00 EMaxC= 1.00D-01 BMatC= 3.58D-06 BMatP= 2.40D-05
 IDIUse=3 WtCom= 9.99D-01 WtEn= 1.07D-03
 Coeff-Com: -0.109D-02 0.114D-01 0.249D-01 0.164D-01-0.181D+00-0.149D+00
 Coeff-Com:  0.128D+01
 Coeff-En:   0.000D+00 0.000D+00 0.000D+00 0.000D+00 0.000D+00 0.000D+00
 Coeff-En:   0.100D+01
 Coeff:     -0.109D-02 0.114D-01 0.249D-01 0.164D-01-0.181D+00-0.149D+00
 Coeff:      0.128D+01
 Gap=     0.532 Goal=   None    Shift=    0.000
 RMSDP=1.75D-05 MaxDP=5.10D-04 DE=-8.58D-05 OVMax= 2.33D-03

 Cycle   8  Pass 1  IDiag  1:
 E= -279.506301938834     Delta-E=       -0.000011993031 Rises=F Damp=F
 DIIS: error= 4.51D-05 at cycle   8 NSaved=   8.
 NSaved= 8 IEnMin= 8 EnMin= -279.506301938834     IErMin= 8 ErrMin= 4.51D-05
 ErrMax= 4.51D-05  0.00D+00 EMaxC= 1.00D-01 BMatC= 6.02D-07 BMatP= 3.58D-06
 IDIUse=1 WtCom= 1.00D+00 WtEn= 0.00D+00
 Coeff-Com: -0.561D-03 0.415D-02 0.959D-02 0.251D-01-0.573D-01-0.193D+00
 Coeff-Com:  0.354D+00 0.858D+00
 Coeff:     -0.561D-03 0.415D-02 0.959D-02 0.251D-01-0.573D-01-0.193D+00
 Coeff:      0.354D+00 0.858D+00
 Gap=     0.532 Goal=   None    Shift=    0.000
 RMSDP=5.46D-06 MaxDP=1.49D-04 DE=-1.20D-05 OVMax= 6.53D-04

 Cycle   9  Pass 1  IDiag  1:
 E= -279.506303325204     Delta-E=       -0.000001386369 Rises=F Damp=F
 DIIS: error= 2.02D-05 at cycle   9 NSaved=   9.
 NSaved= 9 IEnMin= 9 EnMin= -279.506303325204     IErMin= 9 ErrMin= 2.02D-05
 ErrMax= 2.02D-05  0.00D+00 EMaxC= 1.00D-01 BMatC= 1.17D-07 BMatP= 6.02D-07
 IDIUse=1 WtCom= 1.00D+00 WtEn= 0.00D+00
 Coeff-Com:  0.241D-03-0.257D-02-0.531D-02-0.568D-02 0.470D-01 0.491D-01
 Coeff-Com: -0.340D+00 0.296D-01 0.123D+01
 Coeff:      0.241D-03-0.257D-02-0.531D-02-0.568D-02 0.470D-01 0.491D-01
 Coeff:     -0.340D+00 0.296D-01 0.123D+01
 Gap=     0.532 Goal=   None    Shift=    0.000
 RMSDP=2.48D-06 MaxDP=7.43D-05 DE=-1.39D-06 OVMax= 2.15D-04

 Cycle  10  Pass 1  IDiag  1:
 E= -279.506303591450     Delta-E=       -0.000000266247 Rises=F Damp=F
 DIIS: error= 5.46D-06 at cycle  10 NSaved=  10.
 NSaved=10 IEnMin=10 EnMin= -279.506303591450     IErMin=10 ErrMin= 5.46D-06
 ErrMax= 5.46D-06  0.00D+00 EMaxC= 1.00D-01 BMatC= 8.36D-09 BMatP= 1.17D-07
 IDIUse=1 WtCom= 1.00D+00 WtEn= 0.00D+00
 Coeff-Com: -0.380D-04 0.487D-03 0.120D-02-0.186D-02-0.109D-01 0.538D-02
 Coeff-Com:  0.726D-01-0.538D-01-0.437D+00 0.142D+01
 Coeff:     -0.380D-04 0.487D-03 0.120D-02-0.186D-02-0.109D-01 0.538D-02
 Coeff:      0.726D-01-0.538D-01-0.437D+00 0.142D+01
 Gap=     0.532 Goal=   None    Shift=    0.000
 RMSDP=7.17D-07 MaxDP=2.55D-05 DE=-2.66D-07 OVMax= 6.70D-05

 Cycle  11  Pass 1  IDiag  1:
 E= -279.506303617029     Delta-E=       -0.000000025579 Rises=F Damp=F
 DIIS: error= 2.20D-06 at cycle  11 NSaved=  11.
 NSaved=11 IEnMin=11 EnMin= -279.506303617029     IErMin=11 ErrMin= 2.20D-06
 ErrMax= 2.20D-06  0.00D+00 EMaxC= 1.00D-01 BMatC= 8.65D-10 BMatP= 8.36D-09
 IDIUse=1 WtCom= 1.00D+00 WtEn= 0.00D+00
 Coeff-Com: -0.164D-04 0.168D-03 0.340D-03 0.918D-03-0.219D-02-0.730D-02
 Coeff-Com:  0.190D-01 0.196D-01-0.489D-01-0.330D+00 0.135D+01
 Coeff:     -0.164D-04 0.168D-03 0.340D-03 0.918D-03-0.219D-02-0.730D-02
 Coeff:      0.190D-01 0.196D-01-0.489D-01-0.330D+00 0.135D+01
 Gap=     0.532 Goal=   None    Shift=    0.000
 RMSDP=2.55D-07 MaxDP=8.86D-06 DE=-2.56D-08 OVMax= 2.39D-05

 Cycle  12  Pass 1  IDiag  1:
 E= -279.506303620244     Delta-E=       -0.000000003215 Rises=F Damp=F
 DIIS: error= 7.11D-07 at cycle  12 NSaved=  12.
 NSaved=12 IEnMin=12 EnMin= -279.506303620244     IErMin=12 ErrMin= 7.11D-07
 ErrMax= 7.11D-07  0.00D+00 EMaxC= 1.00D-01 BMatC= 9.58D-11 BMatP= 8.65D-10
 IDIUse=1 WtCom= 1.00D+00 WtEn= 0.00D+00
 Coeff-Com:  0.280D-05-0.474D-04-0.105D-03 0.136D-03 0.118D-02-0.734D-03
 Coeff-Com: -0.763D-02 0.641D-02 0.428D-01-0.116D+00-0.191D+00 0.126D+01
 Coeff:      0.280D-05-0.474D-04-0.105D-03 0.136D-03 0.118D-02-0.734D-03
 Coeff:     -0.763D-02 0.641D-02 0.428D-01-0.116D+00-0.191D+00 0.126D+01
 Gap=     0.532 Goal=   None    Shift=    0.000
 RMSDP=9.37D-08 MaxDP=2.67D-06 DE=-3.21D-09 OVMax= 8.42D-06

 Cycle  13  Pass 1  IDiag  1:
 E= -279.506303620611     Delta-E=       -0.000000000367 Rises=F Damp=F
 DIIS: error= 1.67D-07 at cycle  13 NSaved=  13.
 NSaved=13 IEnMin=13 EnMin= -279.506303620611     IErMin=13 ErrMin= 1.67D-07
 ErrMax= 1.67D-07  0.00D+00 EMaxC= 1.00D-01 BMatC= 1.02D-11 BMatP= 9.58D-11
 IDIUse=1 WtCom= 1.00D+00 WtEn= 0.00D+00
 Coeff-Com:  0.139D-05-0.129D-04-0.174D-04-0.134D-03 0.332D-04 0.103D-02
 Coeff-Com: -0.101D-02-0.296D-02-0.277D-02 0.615D-01-0.135D+00-0.181D+00
 Coeff-Com:  0.126D+01
 Coeff:      0.139D-05-0.129D-04-0.174D-04-0.134D-03 0.332D-04 0.103D-02
 Coeff:     -0.101D-02-0.296D-02-0.277D-02 0.615D-01-0.135D+00-0.181D+00
 Coeff:      0.126D+01
 Gap=     0.532 Goal=   None    Shift=    0.000
 RMSDP=3.06D-08 MaxDP=5.22D-07 DE=-3.67D-10 OVMax= 4.04D-06

 Cycle  14  Pass 1  IDiag  1:
 E= -279.506303620653     Delta-E=       -0.000000000042 Rises=F Damp=F
 DIIS: error= 7.72D-08 at cycle  14 NSaved=  14.
 NSaved=14 IEnMin=14 EnMin= -279.506303620653     IErMin=14 ErrMin= 7.72D-08
 ErrMax= 7.72D-08  0.00D+00 EMaxC= 1.00D-01 BMatC= 1.69D-12 BMatP= 1.02D-11
 IDIUse=1 WtCom= 1.00D+00 WtEn= 0.00D+00
 Coeff-Com: -0.551D-06 0.751D-05 0.139D-04 0.944D-05-0.156D-03-0.353D-04
 Coeff-Com:  0.101D-02-0.202D-03-0.450D-02 0.419D-02 0.381D-01-0.101D+00
 Coeff-Com: -0.176D+00 0.124D+01
 Coeff:     -0.551D-06 0.751D-05 0.139D-04 0.944D-05-0.156D-03-0.353D-04
 Coeff:      0.101D-02-0.202D-03-0.450D-02 0.419D-02 0.381D-01-0.101D+00
 Coeff:     -0.176D+00 0.124D+01
 Gap=     0.532 Goal=   None    Shift=    0.000
 RMSDP=1.23D-08 MaxDP=2.92D-07 DE=-4.25D-11 OVMax= 2.20D-06

 Cycle  15  Pass 1  IDiag  1:
 E= -279.506303620662     Delta-E=       -0.000000000009 Rises=F Damp=F
 DIIS: error= 4.80D-08 at cycle  15 NSaved=  15.
 NSaved=15 IEnMin=15 EnMin= -279.506303620662     IErMin=15 ErrMin= 4.80D-08
 ErrMax= 4.80D-08  0.00D+00 EMaxC= 1.00D-01 BMatC= 5.13D-13 BMatP= 1.69D-12
 IDIUse=1 WtCom= 1.00D+00 WtEn= 0.00D+00
 Coeff-Com:  0.392D-07-0.107D-05-0.455D-05 0.210D-04 0.756D-04-0.181D-03
 Coeff-Com: -0.337D-03 0.630D-03 0.285D-02-0.139D-01 0.694D-02 0.894D-01
 Coeff-Com: -0.186D+00-0.649D+00 0.175D+01
 Coeff:      0.392D-07-0.107D-05-0.455D-05 0.210D-04 0.756D-04-0.181D-03
 Coeff:     -0.337D-03 0.630D-03 0.285D-02-0.139D-01 0.694D-02 0.894D-01
 Coeff:     -0.186D+00-0.649D+00 0.175D+01
 Gap=     0.532 Goal=   None    Shift=    0.000
 RMSDP=1.13D-08 MaxDP=2.85D-07 DE=-8.58D-12 OVMax= 2.12D-06

 Cycle  16  Pass 1  IDiag  1:
 E= -279.506303620663     Delta-E=       -0.000000000001 Rises=F Damp=F
 DIIS: error= 2.01D-08 at cycle  16 NSaved=  16.
 NSaved=16 IEnMin=16 EnMin= -279.506303620663     IErMin=16 ErrMin= 2.01D-08
 ErrMax= 2.01D-08  0.00D+00 EMaxC= 1.00D-01 BMatC= 1.02D-13 BMatP= 5.13D-13
 IDIUse=1 WtCom= 1.00D+00 WtEn= 0.00D+00
 Coeff-Com:  0.899D-07-0.122D-05-0.848D-06-0.123D-04 0.273D-05 0.829D-04
 Coeff-Com: -0.507D-04-0.288D-03-0.154D-03 0.496D-02-0.117D-01-0.158D-01
 Coeff-Com:  0.125D+00 0.304D-01-0.897D+00 0.176D+01
 Coeff:      0.899D-07-0.122D-05-0.848D-06-0.123D-04 0.273D-05 0.829D-04
 Coeff:     -0.507D-04-0.288D-03-0.154D-03 0.496D-02-0.117D-01-0.158D-01
 Coeff:      0.125D+00 0.304D-01-0.897D+00 0.176D+01
 Gap=     0.532 Goal=   None    Shift=    0.000
 RMSDP=6.47D-09 MaxDP=1.63D-07 DE=-1.42D-12 OVMax= 1.22D-06

 SCF Done:  E(RHF) =  -279.506303621     A.U. after   16 cycles
            NFock= 16  Conv=0.65D-08     -V/T= 2.0022
 KE= 2.788853772038D+02 PE=-9.063527137060D+02 EE= 2.252187716629D+02
 Leave Link  502 at Sun Mar  6 20:02:52 2022, MaxMem= 16106127360 cpu:              43.4 elap:               7.9
 (Enter /sw/contrib/gaussian/g16/B01/g16/l801.exe)
 ExpMin= 2.53D-02 ExpMax= 1.53D+04 ExpMxC= 5.22D+02 IAcc=3 IRadAn=         5 AccDes= 0.00D+00
 HarFok:  IExCor=  205 AccDes= 0.00D+00 IRadAn=         5 IDoV=-2 UseB2=F ITyADJ=14
 ICtDFT= 12500011 ScaDFX=  1.000000  1.000000  1.000000  1.000000
 Largest valence mixing into a core orbital is  2.07D-04
 Largest core mixing into a valence orbital is  3.10D-05
 Range of M.O.s used for correlation:     5   207
 NBasis=   207 NAE=    16 NBE=    16 NFC=     4 NFV=     0
 NROrb=    203 NOA=    12 NOB=    12 NVA=   191 NVB=   191

 **** Warning!!: The largest alpha MO coefficient is  0.16307766D+02

 Leave Link  801 at Sun Mar  6 20:02:52 2022, MaxMem= 16106127360 cpu:               2.2 elap:               0.1
 (Enter /sw/contrib/gaussian/g16/B01/g16/l906.exe)
 Frozen-core derivative calculation, NFC=   4 NFV=   0.
 FulOut=F Deriv=T AODrv=T NAtomX=     5
   MMem=           0  MDisk=          12 MDiskD=          12
  W3Min=      811440 MinDsk=     2425030 NBas6D=         245
 NBas2D=       30762    NTT=       30135    LW2=     7400000
    MDV= 16105635804 MDiskM=      328645 NBas2p=       30759
 Disk-based method using ON**2 memory for 12 occupieds at a time.
 Permanent disk used for amplitudes=    11516536 words.
 Estimated scratch disk usage=   321863743 words.
 IMap=   1   2   3   4   5   6   7   8   9  10  11  12  13  14  15  16
 Actual    scratch disk usage=   310892607 words.
 JobTyp=1 Pass  1:  I=   5 to  16 NPSUse= 28 ParTrn=T ParDer=T DoDerP=T.
 (rs|ai) integrals will be sorted in core.
 Spin components of T(2) and E(2):
     alpha-alpha T2 =       0.3479269564D-01 E2=     -0.1245386520D+00
     alpha-beta  T2 =       0.1844911396D+00 E2=     -0.6996773348D+00
     beta-beta   T2 =       0.3479269564D-01 E2=     -0.1245386520D+00
 The integrals were generated   1 times.
 ANorm=    0.1119855585D+01
 E2 =    -0.9487546388D+00 EUMP2 =    -0.28045505825942D+03
 Leave Link  906 at Sun Mar  6 20:04:30 2022, MaxMem= 16106127360 cpu:            2745.2 elap:              98.2
 (Enter /sw/contrib/gaussian/g16/B01/g16/l1101.exe)
 Using compressed Sx but separate Hx and Fx, NAtomX=     5.
 Will process      6 centers per pass.
 Leave Link 1101 at Sun Mar  6 20:04:31 2022, MaxMem= 16106127360 cpu:               6.3 elap:               0.3
 (Enter /sw/contrib/gaussian/g16/B01/g16/l1102.exe)
 Leave Link 1102 at Sun Mar  6 20:04:31 2022, MaxMem= 16106127360 cpu:               0.6 elap:               0.0
 (Enter /sw/contrib/gaussian/g16/B01/g16/l1110.exe)
 Forming Gx(P) for the SCF density, NAtomX=     5.
 Integral derivatives from FoFJK, PRISM(SPDF).
 Do as many integral derivatives as possible in FoFJK.
 G2DrvN: MDV=   16106126844.
 G2DrvN: will do     6 centers at a time, making    1 passes.
 Calling FoFCou, ICntrl=  3107 FMM=F I1Cent=   0 AccDes= 0.00D+00.
 FoFJK:  IHMeth= 1 ICntrl=    3107 DoSepK=F KAlg= 0 I1Cent=           0 FoldK=F
 IRaf=         0 NMat=       1 IRICut=       1 DoRegI=T DoRafI=F ISym2E= 0 IDoP0=0 IntGTp=1.
 FoFCou: FMM=F IPFlag=           0 FMFlag=      100000 FMFlg1=           0
         NFxFlg=           0 DoJE=F BraDBF=F KetDBF=F FulRan=T
         wScrn=  0.000000 ICntrl=      3107 IOpCl=  0 I1Cent=           0 NGrid=           0
         NMat0=    1 NMatS0=      1 NMatT0=    0 NMatD0=    1 NMtDS0=    0 NMtDT0=    0
 Symmetry not used in FoFCou.
 End of G2Drv F.D. properties file   721 does not exist.
 End of G2Drv F.D. properties file   722 does not exist.
 End of G2Drv F.D. properties file   788 does not exist.
 Leave Link 1110 at Sun Mar  6 20:04:34 2022, MaxMem= 16106127360 cpu:              86.8 elap:               3.1
 (Enter /sw/contrib/gaussian/g16/B01/g16/l1002.exe)
 Minotr:  Closed shell wavefunction.
          IDoAtm=11111
          Frozen-core window.
          Direct CPHF calculation.
          Differentiating once with respect to electric field.
                with respect to dipole field.
          Differentiating once with respect to nuclear coordinates.
          Requested convergence is 1.0D-08 RMS, and 1.0D-07 maximum.
          Secondary convergence is 1.0D-12 RMS, and 1.0D-12 maximum.
          NewPWx=T KeepS1=T KeepF1=T KeepIn=T MapXYZ=F SortEE=F KeepMc=T.
 Keep R1 ints in memory in canonical form, NReq=245624906.
 FoFCou: FMM=F IPFlag=           0 FMFlag=           0 FMFlg1=           0
         NFxFlg=           0 DoJE=F BraDBF=F KetDBF=F FulRan=T
         wScrn=  0.000000 ICntrl=       600 IOpCl=  0 I1Cent=           0 NGrid=           0
         NMat0=    1 NMatS0=  21528 NMatT0=    0 NMatD0=    1 NMtDS0=    0 NMtDT0=    0
 Symmetry not used in FoFCou.
 Two-electron integral symmetry not used.
          MDV=   16106127360 using IRadAn=       1.
          Solving linear equations simultaneously, MaxMat=       0.
          There are    18 degrees of freedom in the 1st order CPHF.  IDoFFX=6 NUNeed=    18.
     15 vectors produced by pass  0 Test12= 1.70D-14 5.56D-09 XBig12= 7.45D+00 1.30D+00.
 AX will form    15 AO Fock derivatives at one time.
     15 vectors produced by pass  1 Test12= 1.70D-14 5.56D-09 XBig12= 1.30D+00 2.34D-01.
     15 vectors produced by pass  2 Test12= 1.70D-14 5.56D-09 XBig12= 9.09D-02 8.06D-02.
     15 vectors produced by pass  3 Test12= 1.70D-14 5.56D-09 XBig12= 3.21D-03 1.19D-02.
     15 vectors produced by pass  4 Test12= 1.70D-14 5.56D-09 XBig12= 6.98D-05 1.59D-03.
     15 vectors produced by pass  5 Test12= 1.70D-14 5.56D-09 XBig12= 7.40D-07 1.06D-04.
     15 vectors produced by pass  6 Test12= 1.70D-14 5.56D-09 XBig12= 4.67D-09 1.23D-05.
     13 vectors produced by pass  7 Test12= 1.70D-14 5.56D-09 XBig12= 3.48D-11 8.50D-07.
      3 vectors produced by pass  8 Test12= 1.70D-14 5.56D-09 XBig12= 2.95D-13 6.31D-08.
      1 vectors produced by pass  9 Test12= 1.70D-14 5.56D-09 XBig12= 2.61D-15 7.63D-09.
 InvSVY:  IOpt=1 It=  1 EMax= 1.33D-15
 Solved reduced A of dimension   122 with    15 vectors.
 FullF1:  Do perturbations      1 to      18.
 Saving first derivative matrices.
 End of Minotr F.D. properties file   721 does not exist.
 End of Minotr F.D. properties file   722 does not exist.
 End of Minotr F.D. properties file   788 does not exist.
 Leave Link 1002 at Sun Mar  6 20:04:38 2022, MaxMem= 16106127360 cpu:              93.4 elap:               3.8
 (Enter /sw/contrib/gaussian/g16/B01/g16/l811.exe)
 MDV= 16106127360.
 Form MO integral derivatives with frozen-active canonical formalism.
 MOERI=1 MOERIx=1 NAtoms=     5 NAtomX=     5.
 Discarding MO integrals.
 MO basis two electron integral derivatives will not be stored on disk.
 IAlg= 3 DoFC=T DoPWx=T Debug=F.
 Frozen-core window:  NFC=   4 NFV=   0.
 Reordered first order wavefunction length =     18678272
 In DefCFB: NBatch=  1 ICI= 16 ICA=191 LFMax= 96
            Large arrays: LIAPS=   619940160 LIARS=   288257200 words.
 In StABat: MaxSiz= 55 MinSiz= 25 NAtomB=  5
 DoIAMN: NPSUse= 28.
 Leave Link  811 at Sun Mar  6 20:06:11 2022, MaxMem= 16106127360 cpu:            2612.5 elap:              93.5
 (Enter /sw/contrib/gaussian/g16/B01/g16/l804.exe)
 Frozen-core window:  NFC=   4 NFV=   0.
 Closed-shell transformation, MDV= 16106127360 ITran=4 ISComp=1.
 Semi-Direct transformation.
 ModeAB=           2 MOrb=            16 LenV=   16104922737
 LASXX=     67341636 LTotXX=    67341636 LenRXX=    67341636
 LTotAB=    68301760 MaxLAS=    99807120 LenRXY=    99807120
 NonZer=   134683272 LenScr=   202817536 LnRSAI=           0
 LnScr1=           0 LExtra=           0 Total=    369966292
 MaxDsk=          -1 SrtSym=           F ITran=            4
 DoSDTr:  NPSUse= 28
 JobTyp=0 Pass  1:  I=   1 to  16.
 (rs|ai) integrals will be sorted in core.
 Complete sort for first half transformation.
 First half transformation complete.
 Begin second half transformation for I=  10.
 Begin second half transformation for I=  10.
 Complete sort for second half transformation.
 Second half transformation complete.
 SymMOI:  orbitals are not symmetric.
 Spin components of T(2) and E(2):
     alpha-alpha T2 =       0.3479269564D-01 E2=     -0.1245386520D+00
     alpha-beta  T2 =       0.1844911396D+00 E2=     -0.6996773348D+00
     beta-beta   T2 =       0.3479269564D-01 E2=     -0.1245386520D+00
 ANorm=    0.1583714956D+01
 E2 =    -0.9487546388D+00 EUMP2 =    -0.28045505825942D+03
 Leave Link  804 at Sun Mar  6 20:06:24 2022, MaxMem= 16106127360 cpu:             371.3 elap:              13.3
 (Enter /sw/contrib/gaussian/g16/B01/g16/l1002.exe)
 Minotr:  Closed shell wavefunction.
          Computing MP2/KS-MP2 derivatives.
          Using Z-Vector for PSCF gradient.
          Skipping F1 and S1 gradient terms here.
          IDoAtm=11111
          Frozen-core window.
          Using MO integrals in the linear equations.
          Forming densities via direct SCF.
          Differentiating once with respect to electric field.
                with respect to dipole field.
          Differentiating once with respect to nuclear coordinates.
          Requested convergence is 1.0D-10 RMS, and 1.0D-09 maximum.
          NewPWx=F KeepS1=T KeepF1=T KeepIn=T MapXYZ=F SortEE=F KeepMc=T.
          MDV=   16106127360 using IRadAn=       5.
          Solving linear equations separately, MaxMat=       0.
          There are     1 degrees of freedom in the 1st order CPHF.  IDoFFX=0 NUNeed=     1.
 FoFJK:  IHMeth= 1 ICntrl=       0 DoSepK=F KAlg= 0 I1Cent=           0 FoldK=F
 IRaf=         0 NMat=       1 IRICut=       1 DoRegI=T DoRafI=F ISym2E= 0 IDoP0=0 IntGTp=1.
 FoFCou: FMM=F IPFlag=           0 FMFlag=      100000 FMFlg1=           0
         NFxFlg=           0 DoJE=F BraDBF=F KetDBF=F FulRan=T
         wScrn=  0.000000 ICntrl=         0 IOpCl=  0 I1Cent=           0 NGrid=           0
         NMat0=    1 NMatS0=      1 NMatT0=    0 NMatD0=    1 NMtDS0=    0 NMtDT0=    0
 Symmetry not used in FoFCou.
 LinEq1:  Iter=  0 NonCon=     1 RMS=6.59D-03 Max=1.68D-01 NDo=     1
 LinEq1:  Iter=  1 NonCon=     1 RMS=2.00D-03 Max=3.05D-02 NDo=     1
 LinEq1:  Iter=  2 NonCon=     1 RMS=8.88D-04 Max=1.43D-02 NDo=     1
 LinEq1:  Iter=  3 NonCon=     1 RMS=3.80D-04 Max=8.05D-03 NDo=     1
 LinEq1:  Iter=  4 NonCon=     1 RMS=1.37D-04 Max=1.64D-03 NDo=     1
 LinEq1:  Iter=  5 NonCon=     1 RMS=7.64D-05 Max=1.09D-03 NDo=     1
 LinEq1:  Iter=  6 NonCon=     1 RMS=2.45D-05 Max=3.14D-04 NDo=     1
 LinEq1:  Iter=  7 NonCon=     1 RMS=8.26D-06 Max=9.33D-05 NDo=     1
 LinEq1:  Iter=  8 NonCon=     1 RMS=4.05D-06 Max=6.50D-05 NDo=     1
 LinEq1:  Iter=  9 NonCon=     1 RMS=1.09D-06 Max=1.54D-05 NDo=     1
 LinEq1:  Iter= 10 NonCon=     1 RMS=2.66D-07 Max=6.09D-06 NDo=     1
 LinEq1:  Iter= 11 NonCon=     1 RMS=7.66D-08 Max=2.38D-06 NDo=     1
 LinEq1:  Iter= 12 NonCon=     1 RMS=2.20D-08 Max=4.88D-07 NDo=     1
 LinEq1:  Iter= 13 NonCon=     1 RMS=5.02D-09 Max=8.69D-08 NDo=     1
 LinEq1:  Iter= 14 NonCon=     1 RMS=9.65D-10 Max=9.05D-09 NDo=     1
 LinEq1:  Iter= 15 NonCon=     1 RMS=2.55D-10 Max=2.64D-09 NDo=     1
 LinEq1:  Iter= 16 NonCon=     0 RMS=5.31D-11 Max=8.00D-10 NDo=     1
 Linear equations converged to 1.000D-10 1.000D-09 after    16 iterations.
 End of Minotr F.D. properties file   721 does not exist.
 End of Minotr F.D. properties file   722 does not exist.
 End of Minotr F.D. properties file   788 does not exist.
 Leave Link 1002 at Sun Mar  6 20:06:27 2022, MaxMem= 16106127360 cpu:              67.8 elap:               2.5
 (Enter /sw/contrib/gaussian/g16/B01/g16/l1102.exe)
 Use density number 2.
 Symmetrizing basis deriv contribution to polar:
 IMax=3 JMax=2 DiffMx= 0.00D+00
 Leave Link 1102 at Sun Mar  6 20:06:27 2022, MaxMem= 16106127360 cpu:               0.7 elap:               0.1
 (Enter /sw/contrib/gaussian/g16/B01/g16/l1110.exe)
 Forming Gx(P) for generalized density number  2 NAtomX=     5.
 Integral derivatives from FoFJK, PRISM(SPDF).
 Do as many integral derivatives as possible in FoFJK.
 G2DrvN: MDV=   16106126844.
 G2DrvN: will do     6 centers at a time, making    1 passes.
 Calling FoFCou, ICntrl=  3107 FMM=F I1Cent=   0 AccDes= 0.00D+00.
 FoFJK:  IHMeth= 1 ICntrl=    3107 DoSepK=F KAlg= 0 I1Cent=           0 FoldK=F
 IRaf=         0 NMat=       1 IRICut=       1 DoRegI=T DoRafI=F ISym2E= 0 IDoP0=0 IntGTp=1.
 FoFCou: FMM=F IPFlag=           0 FMFlag=      100000 FMFlg1=           0
         NFxFlg=           0 DoJE=F BraDBF=F KetDBF=F FulRan=T
         wScrn=  0.000000 ICntrl=      3107 IOpCl=  0 I1Cent=           0 NGrid=           0
         NMat0=    1 NMatS0=      1 NMatT0=    0 NMatD0=    1 NMtDS0=    0 NMtDT0=    0
 Symmetry not used in FoFCou.
 End of G2Drv F.D. properties file   721 does not exist.
 End of G2Drv F.D. properties file   722 does not exist.
 End of G2Drv F.D. properties file   788 does not exist.
 Leave Link 1110 at Sun Mar  6 20:06:30 2022, MaxMem= 16106127360 cpu:              86.8 elap:               3.1
 (Enter /sw/contrib/gaussian/g16/B01/g16/l1112.exe)
 MP22nd: MDV=   16106127360
 This link is doing NAtomX=     5 total of    18 degrees of freedom.
 Using ON3 I/O method in MakUI.
 Frozen-core window:  NFC=   4 NFV=   0.
 Using Ix for Sx.
 Use MO integrals over full window.
 Using OV2 memory method for fx*t*t/D, MaxI=    16 DoOO2=F NP=  28.
 R2 and R3 integrals will be kept in memory, NReq=   915591705.
 FoFCou: FMM=F IPFlag=           0 FMFlag=           0 FMFlg1=           0
         NFxFlg=           0 DoJE=F BraDBF=F KetDBF=F FulRan=T
         wScrn=  0.000000 ICntrl=       600 IOpCl=  0 I1Cent=           0 NGrid=           0
         NMat0=    1 NMatS0=      1 NMatT0=    0 NMatD0=    1 NMtDS0=    0 NMtDT0=    0
 Symmetry not used in FoFCou.
 DD1Dir will call FoFMem   1 times, MxPair=       272
 NAB=   136 NAA=     0 NBB=     0.
 Symmetry is being used.
 FoFJK:  IHMeth= 1 ICntrl=       0 DoSepK=F KAlg= 0 I1Cent=           0 FoldK=F
 IRaf=         0 NMat=      18 IRICut=      45 DoRegI=T DoRafI=T ISym2E= 2 IDoP0=3 IntGTp=3.
 Discarding MO integrals.
 Leave Link 1112 at Sun Mar  6 20:06:56 2022, MaxMem= 16106127360 cpu:             731.6 elap:              26.2
 (Enter /sw/contrib/gaussian/g16/B01/g16/l601.exe)
 Copying SCF densities to generalized density rwf, IOpCl= 0 IROHF=0.

 **********************************************************************

            Population analysis using the MP2 Density.

 **********************************************************************

 Orbital symmetries:
       Occupied  (A) (A) (A) (A) (A) (A) (A) (A) (A) (A) (A) (A)
                 (A) (A) (A) (A)
       Virtual   (A) (A) (A) (A) (A) (A) (A) (A) (A) (A) (A) (A)
                 (A) (A) (A) (A) (A) (A) (A) (A) (A) (A) (A) (A)
                 (A) (A) (A) (A) (A) (A) (A) (A) (A) (A) (A) (A)
                 (A) (A) (A) (A) (A) (A) (A) (A) (A) (A) (A) (A)
                 (A) (A) (A) (A) (A) (A) (A) (A) (A) (A) (A) (A)
                 (A) (A) (A) (A) (A) (A) (A) (A) (A) (A) (A) (A)
                 (A) (A) (A) (A) (A) (A) (A) (A) (A) (A) (A) (A)
                 (A) (A) (A) (A) (A) (A) (A) (A) (A) (A) (A) (A)
                 (A) (A) (A) (A) (A) (A) (A) (A) (A) (A) (A) (A)
                 (A) (A) (A) (A) (A) (A) (A) (A) (A) (A) (A) (A)
                 (A) (A) (A) (A) (A) (A) (A) (A) (A) (A) (A) (A)
                 (A) (A) (A) (A) (A) (A) (A) (A) (A) (A) (A) (A)
                 (A) (A) (A) (A) (A) (A) (A) (A) (A) (A) (A) (A)
                 (A) (A) (A) (A) (A) (A) (A) (A) (A) (A) (A) (A)
                 (A) (A) (A) (A) (A) (A) (A) (A) (A) (A) (A) (A)
                 (A) (A) (A) (A) (A) (A) (A) (A) (A) (A) (A)
 The electronic state is 1-A.
 Alpha  occ. eigenvalues --  -20.71970 -20.68726 -20.66834 -15.82598  -1.64424
 Alpha  occ. eigenvalues --   -1.50517  -1.29374  -0.96036  -0.83455  -0.75894
 Alpha  occ. eigenvalues --   -0.73990  -0.63750  -0.61919  -0.61795  -0.50482
 Alpha  occ. eigenvalues --   -0.49728
 Alpha virt. eigenvalues --    0.03505   0.06013   0.09512   0.10038   0.11913
 Alpha virt. eigenvalues --    0.12305   0.14945   0.15204   0.17735   0.18054
 Alpha virt. eigenvalues --    0.18964   0.21116   0.21679   0.24253   0.24632
 Alpha virt. eigenvalues --    0.26889   0.31155   0.31779   0.33806   0.34386
 Alpha virt. eigenvalues --    0.34683   0.39262   0.44837   0.48771   0.50570
 Alpha virt. eigenvalues --    0.51871   0.54481   0.56131   0.59899   0.62035
 Alpha virt. eigenvalues --    0.63826   0.68983   0.71683   0.72471   0.74312
 Alpha virt. eigenvalues --    0.76375   0.76730   0.79484   0.80614   0.84084
 Alpha virt. eigenvalues --    0.84323   0.85211   0.88566   0.90776   0.92990
 Alpha virt. eigenvalues --    0.94873   0.95421   1.01779   1.03299   1.06096
 Alpha virt. eigenvalues --    1.06546   1.09618   1.14355   1.15634   1.17032
 Alpha virt. eigenvalues --    1.22177   1.22689   1.24621   1.35171   1.36254
 Alpha virt. eigenvalues --    1.37108   1.46850   1.48605   1.50470   1.54129
 Alpha virt. eigenvalues --    1.59207   1.59810   1.61007   1.62861   1.69540
 Alpha virt. eigenvalues --    1.74037   1.80132   1.82999   1.88691   1.89737
 Alpha virt. eigenvalues --    1.92967   1.97905   1.98934   2.05235   2.12366
 Alpha virt. eigenvalues --    2.13076   2.16522   2.18818   2.24010   2.26344
 Alpha virt. eigenvalues --    2.29463   2.35205   2.36585   2.38653   2.40219
 Alpha virt. eigenvalues --    2.43368   2.46791   2.48031   2.52849   2.53924
 Alpha virt. eigenvalues --    2.54844   2.55987   2.61620   2.63032   2.67019
 Alpha virt. eigenvalues --    2.67475   2.75351   2.80845   2.81928   2.84221
 Alpha virt. eigenvalues --    2.91859   2.98510   3.04646   3.05103   3.11545
 Alpha virt. eigenvalues --    3.11826   3.17302   3.21304   3.30732   3.33239
 Alpha virt. eigenvalues --    3.36111   3.47775   3.67783   3.86987   3.93021
 Alpha virt. eigenvalues --    4.18249   4.21933   4.22913   4.26925   4.36981
 Alpha virt. eigenvalues --    4.50030   4.52765   4.55629   4.59928   4.69356
 Alpha virt. eigenvalues --    4.80953   4.89576   4.91815   4.94142   4.99773
 Alpha virt. eigenvalues --    5.00630   5.10863   5.13300   5.17944   5.24962
 Alpha virt. eigenvalues --    5.25924   5.31766   5.34697   5.35610   5.54688
 Alpha virt. eigenvalues --    5.64498   5.70647   5.88971   5.99732   6.26442
 Alpha virt. eigenvalues --    6.29592   6.36098   6.37662   6.59829   6.65925
 Alpha virt. eigenvalues --    6.65982   6.69011   6.72583   6.79503   6.80746
 Alpha virt. eigenvalues --    6.85067   6.96786   7.02080   7.06643   7.08063
 Alpha virt. eigenvalues --    7.13872   7.17208   7.17805   7.20340   7.24417
 Alpha virt. eigenvalues --    7.24934   7.27176   7.34989   7.39437   7.42802
 Alpha virt. eigenvalues --    7.44315   7.46269   7.55973   7.66346   7.66738
 Alpha virt. eigenvalues --    7.79434   7.88266   7.95283   8.06347   8.30649
 Alpha virt. eigenvalues --    8.49956   8.65220  13.61888  14.76346  15.10355
 Alpha virt. eigenvalues --   15.76182
          Condensed to atoms (all electrons):
               1          2          3          4          5
     1  H    0.578586   0.124270   0.024264  -0.000402  -0.004865
     2  O    0.124270   8.390163  -0.230829  -0.000566  -0.008953
     3  O    0.024264  -0.230829   8.372288  -0.169143  -0.034080
     4  N   -0.000402  -0.000566  -0.169143   7.135056  -0.119294
     5  O   -0.004865  -0.008953  -0.034080  -0.119294   8.363102
 Mulliken charges:
               1
     1  H    0.278147
     2  O   -0.274085
     3  O    0.037500
     4  N    0.154349
     5  O   -0.195910
 Sum of Mulliken charges =  -0.00000
 Mulliken charges with hydrogens summed into heavy atoms:
               1
     2  O    0.004061
     3  O    0.037500
     4  N    0.154349
     5  O   -0.195910
 APT charges:
               1
     1  H    0.271358
     2  O   -0.302361
     3  O   -0.309433
     4  N    0.643340
     5  O   -0.302904
 Sum of APT charges =  -0.00000
 APT charges with hydrogens summed into heavy atoms:
               1
     2  O   -0.031003
     3  O   -0.309433
     4  N    0.643340
     5  O   -0.302904
 Electronic spatial extent (au):  <R**2>=            207.2460
 Charge=             -0.0000 electrons
 Dipole moment (field-independent basis, Debye):
    X=             -0.6062    Y=             -0.9133    Z=              0.0471  Tot=              1.0972
 Quadrupole moment (field-independent basis, Debye-Ang):
   XX=            -25.1099   YY=            -21.2129   ZZ=            -21.9309
   XY=             -0.3837   XZ=              0.0309   YZ=             -0.1217
 Traceless Quadrupole moment (field-independent basis, Debye-Ang):
   XX=             -2.3586   YY=              1.5383   ZZ=              0.8203
   XY=             -0.3837   XZ=              0.0309   YZ=             -0.1217
 Octapole moment (field-independent basis, Debye-Ang**2):
  XXX=              0.1508  YYY=             -5.4941  ZZZ=             -0.0463  XYY=              2.3108
  XXY=              0.5368  XXZ=             -0.0947  XZZ=             -0.8891  YZZ=             -0.2252
  YYZ=              0.0622  XYZ=             -0.0354
 Hexadecapole moment (field-independent basis, Debye-Ang**3):
 XXXX=           -154.0075 YYYY=            -65.2218 ZZZZ=            -18.0646 XXXY=              2.8043
 XXXZ=              0.0504 YYYX=              0.2054 YYYZ=             -0.2605 ZZZX=              0.0389
 ZZZY=             -0.0425 XXYY=            -36.9617 XXZZ=            -27.9875 YYZZ=            -14.9441
 XXYZ=             -0.0981 YYXZ=              0.1417 ZZXY=              0.9803
 N-N= 1.227422612187D+02 E-N=-9.070410448926D+02  KE= 2.802027767717D+02
  Exact polarizability:  34.495   0.730  26.271  -0.040  -0.008  17.625
 Approx polarizability:  26.138   1.635  26.069  -0.020   0.007  15.522
 No NMR shielding tensors so no spin-rotation constants.
 Leave Link  601 at Sun Mar  6 20:06:57 2022, MaxMem= 16106127360 cpu:               4.2 elap:               0.2
 (Enter /sw/contrib/gaussian/g16/B01/g16/l701.exe)
 ... and contract with generalized density number  2.
 Compute integral second derivatives.
 Leave Link  701 at Sun Mar  6 20:06:57 2022, MaxMem= 16106127360 cpu:               5.7 elap:               0.2
 (Enter /sw/contrib/gaussian/g16/B01/g16/l702.exe)
 L702 exits ... SP integral derivatives will be done elsewhere.
 Leave Link  702 at Sun Mar  6 20:06:57 2022, MaxMem= 16106127360 cpu:               0.4 elap:               0.0
 (Enter /sw/contrib/gaussian/g16/B01/g16/l703.exe)
 Integral derivatives from FoFJK, PRISM(SPDF).
 Compute integral second derivatives, UseDBF=F ICtDFT=           0.
 Calling FoFJK, ICntrl=  10100127 FMM=F ISym2X=0 I1Cent= 0 IOpClX= 0 NMat=1 NMatS=1 NMatT=0.
 FoFJK:  IHMeth= 1 ICntrl=10100127 DoSepK=F KAlg= 0 I1Cent=           0 FoldK=F
 IRaf=         0 NMat=       1 IRICut=       1 DoRegI=T DoRafI=F ISym2E= 0 IDoP0=0 IntGTp=1.
 FoFCou: FMM=F IPFlag=           0 FMFlag=      100000 FMFlg1=         800
         NFxFlg=           0 DoJE=F BraDBF=F KetDBF=F FulRan=T
         wScrn=  0.000000 ICntrl=  10100127 IOpCl=  0 I1Cent=           0 NGrid=           0
         NMat0=    1 NMatS0=      1 NMatT0=    0 NMatD0=    1 NMtDS0=    0 NMtDT0=    0
 Symmetry not used in FoFCou.
 Leave Link  703 at Sun Mar  6 20:07:13 2022, MaxMem= 16106127360 cpu:             451.1 elap:              16.2
 (Enter /sw/contrib/gaussian/g16/B01/g16/l716.exe)
 Dipole        =-2.38498798D-01-3.59325285D-01 1.85448637D-02
 Polarizability= 3.44947955D+01 7.29834251D-01 2.62712021D+01
                -4.03275311D-02-8.45566924D-03 1.76246042D+01
 Full mass-weighted force constant matrix:
 Low frequencies ---  -18.3897  -10.3481   -0.0014   -0.0008    0.0014    7.7514
 Low frequencies ---  351.3754  395.7163  521.9196
 Diagonal vibrational polarizability:
       13.8106500       3.4633546      16.2661896
 Harmonic frequencies (cm**-1), IR intensities (KM/Mole), Raman scattering
 activities (A**4/AMU), depolarization ratios for plane and unpolarized
 incident light, reduced masses (AMU), force constants (mDyne/A),
 and normal coordinates:
                      1                      2                      3
                      A                      A                      A
 Frequencies --    351.3752               395.7013               521.9194
 Red. masses --      1.5431                 7.1404                 2.9510
 Frc consts  --      0.1122                 0.6587                 0.4736
 IR Inten    --     63.4438                 7.8055                25.3492
  Atom  AN      X      Y      Z        X      Y      Z        X      Y      Z
     1   1     0.06   0.01   0.98     0.73  -0.23  -0.04    -0.02   0.03   0.93
     2   8     0.02  -0.00  -0.11     0.45   0.06   0.03    -0.03  -0.01   0.05
     3   8     0.00  -0.00   0.11     0.00  -0.11  -0.05     0.00   0.01  -0.18
     4   7    -0.01   0.00  -0.11    -0.10  -0.04   0.06     0.00  -0.01   0.27
     5   8    -0.02   0.00   0.03    -0.41   0.10  -0.03     0.03  -0.00  -0.17
                      4                      5                      6
                      A                      A                      A
 Frequencies --    711.5306               837.1934               970.9953
 Red. masses --     13.3055                12.3601                 9.7875
 Frc consts  --      3.9689                 5.1042                 5.4369
 IR Inten    --    217.2971                30.6026                12.7766
  Atom  AN      X      Y      Z        X      Y      Z        X      Y      Z
     1   1    -0.28   0.21  -0.05    -0.26   0.39   0.03    -0.51   0.37   0.01
     2   8    -0.05  -0.06  -0.01    -0.31   0.48  -0.00     0.06  -0.25   0.00
     3   8     0.64   0.25   0.00     0.32  -0.21   0.00    -0.05   0.54  -0.00
     4   7    -0.60  -0.13  -0.01     0.38  -0.21   0.00     0.33  -0.19  -0.01
     5   8    -0.05  -0.09   0.01    -0.33  -0.11  -0.00    -0.27  -0.15   0.00
                      7                      8                      9
                      A                      A                      A
 Frequencies --   1434.6239              1570.1666              3488.0442
 Red. masses --      1.3056                 6.3861                 1.0638
 Frc consts  --      1.5832                 9.2764                 7.6254
 IR Inten    --     79.8637               149.9967                42.4936
  Atom  AN      X      Y      Z        X      Y      Z        X      Y      Z
     1   1    -0.66   0.74   0.01     0.51  -0.59   0.00     0.71   0.70  -0.03
     2   8     0.08   0.00  -0.00    -0.03  -0.01   0.00    -0.04  -0.04   0.00
     3   8    -0.01  -0.06   0.00     0.06   0.03  -0.00    -0.00  -0.00   0.00
     4   7    -0.02   0.08   0.00     0.04   0.47   0.01     0.00   0.00  -0.00
     5   8    -0.01  -0.05  -0.00    -0.10  -0.39  -0.01     0.00  -0.00   0.00

 -------------------
 - Thermochemistry -
 -------------------
 Temperature   298.150 Kelvin.  Pressure   1.00000 Atm.
 Atom     1 has atomic number  1 and mass   1.00783
 Atom     2 has atomic number  8 and mass  15.99491
 Atom     3 has atomic number  8 and mass  15.99491
 Atom     4 has atomic number  7 and mass  14.00307
 Atom     5 has atomic number  8 and mass  15.99491
 Molecular mass:    62.99564 amu.
 Principal axes and moments of inertia in atomic units:
                           1         2         3
     Eigenvalues --    84.49513 222.75313 307.17605
           X            0.99987  -0.01593   0.00031
           Y            0.01593   0.99987  -0.00161
           Z           -0.00028   0.00161   1.00000
 This molecule is an asymmetric top.
 Rotational symmetry number  1.
 Rotational temperatures (Kelvin)      1.02508     0.38883     0.28197
 Rotational constants (GHZ):          21.35912     8.10198     5.87527
 Zero-point vibrational energy      61497.3 (Joules/Mol)
                                   14.69821 (Kcal/Mol)
 Warning -- explicit consideration of   3 degrees of freedom as
           vibrations may cause significant error
 Vibrational temperatures:    505.55   569.33   750.93  1023.73  1204.53
          (Kelvin)           1397.05  2064.10  2259.12  5018.52
 
 Zero-point correction=                           0.023423 (Hartree/Particle)
 Thermal correction to Energy=                    0.027365
 Thermal correction to Enthalpy=                  0.028309
 Thermal correction to Gibbs Free Energy=        -0.002555
 Sum of electronic and zero-point Energies=           -280.431635
 Sum of electronic and thermal Energies=              -280.427693
 Sum of electronic and thermal Enthalpies=            -280.426749
 Sum of electronic and thermal Free Energies=         -280.457613
 
                     E (Thermal)             CV                S
                      KCal/Mol        Cal/Mol-Kelvin    Cal/Mol-Kelvin
 Total                   17.172             12.176             64.959
 Electronic               0.000              0.000              0.000
 Translational            0.889              2.981             38.341
 Rotational               0.889              2.981             23.273
 Vibrational             15.394              6.214              3.345
 Vibration     1          0.728              1.572              1.160
 Vibration     2          0.762              1.479              0.979
 Vibration     3          0.877              1.201              0.606
                       Q            Log10(Q)             Ln(Q)
 Total Bot       0.149695D+02          1.175207          2.706014
 Total V=0       0.889350D+12         11.949073         27.513757
 Vib (Bot)       0.279847D-10        -10.553080        -24.299364
 Vib (Bot)    1  0.524609D+00         -0.280165         -0.645103
 Vib (Bot)    2  0.451844D+00         -0.345012         -0.794419
 Vib (Bot)    3  0.308724D+00         -0.510429         -1.175306
 Vib (V=0)       0.166259D+01          0.220786          0.508379
 Vib (V=0)    1  0.122472D+01          0.088036          0.202709
 Vib (V=0)    2  0.117392D+01          0.069637          0.160345
 Vib (V=0)    3  0.108763D+01          0.036482          0.084002
 Electronic      0.100000D+01          0.000000          0.000000
 Translational   0.196526D+08          7.293420         16.793719
 Rotational      0.272187D+05          4.434867         10.211659
 
                                                                title
                                                             IR Spectrum
 
     3                                                                     1    1                                                    
     4                                                                     5    4                9    8    7     5    3 3            
     8                                                                     7    3                7    3    1     2    9 5            
     8                                                                     0    5                1    7    2     2    6 1            
 
     X                                                                     X    X                X    X    X     X    X X            
     X                                                                     X    X                     X    X     X      X            
     X                                                                     X    X                     X    X            X            
     X                                                                     X    X                          X            X            
                                                                           X    X                          X            X            
                                                                           X    X                          X            X            
                                                                           X    X                          X                         
                                                                           X                               X                         
                                                                           X                               X                         
                                                                           X                               X                         
                                                                           X                               X                         
                                                                           X                               X                         
                                                                           X                               X                         
                                                                           X                               X                         
                                                                                                           X                         
                                                                                                           X                         
                                                                                                           X                         
                                                                                                           X                         
                                                                                                           X                         
                                                                                                           X                         
 
 ***** Axes restored to original set *****
 -------------------------------------------------------------------
 Center     Atomic                   Forces (Hartrees/Bohr)
 Number     Number              X              Y              Z
 -------------------------------------------------------------------
      1        1          -0.000033126   -0.000889201    0.000063062
      2        8          -0.000271579   -0.001268200   -0.000000171
      3        8           0.000182335    0.003588852   -0.000299737
      4        7           0.000423911   -0.004460027    0.000529599
      5        8          -0.000301541    0.003028576   -0.000292753
 -------------------------------------------------------------------
 Cartesian Forces:  Max     0.004460027 RMS     0.001735544
 -----------------------------------------------------------------------------------------------
                       Internal Coordinate Forces (Hartree/Bohr or radian)
  Cent   Atom   N1       Length/X         N2         Alpha/Y        N3         Beta/Z          J
 -----------------------------------------------------------------------------------------------
      1  H 
      2  O        1  -0.000063(     1)
      3  O        2   0.000288(     2)      1   0.000062(     5)
      4  N        3  -0.000129(     3)      2   0.000380(     6)      1   0.001627(     8)     0
      5  O        4   0.000247(     4)      3  -0.000065(     7)      2   0.006269(     9)     0
 -----------------------------------------------------------------------------------------------
 Internal  Forces:  Max     0.006269295 RMS     0.002167161
 Force constants in Cartesian coordinates: 
                1             2             3             4             5 
      1  0.722144D-01
      2  0.710891D-03  0.601998D-02
      3  0.240605D-01 -0.585097D-03  0.436799D+00
      4 -0.518981D-01  0.348693D-03 -0.474043D-02  0.281070D+00
      5  0.100510D-03 -0.241090D-02 -0.200914D-03  0.132107D-02  0.121352D-01
      6  0.322326D-01  0.486696D-03 -0.420602D+00 -0.124061D-01  0.115220D-02
      7 -0.251400D-01 -0.241042D-03 -0.158376D-01 -0.170833D+00 -0.129884D-02
      8 -0.610144D-03 -0.419182D-02  0.798263D-03 -0.126438D-02 -0.189092D-01
      9 -0.439694D-01 -0.521942D-03 -0.198817D-01  0.105666D-01 -0.995273D-03
     10 -0.572838D-02 -0.213866D-03  0.645816D-02 -0.840716D-01 -0.123663D-02
     11  0.471274D-04  0.799716D-02 -0.752266D-03  0.164756D-03  0.197568D-01
     12 -0.191657D-01  0.554813D-03  0.119039D-01  0.107024D-01 -0.211867D-03
     13  0.105521D-01 -0.604676D-03 -0.994063D-02  0.257327D-01  0.111389D-02
     14 -0.248385D-03 -0.741442D-02  0.740013D-03 -0.570139D-03 -0.105719D-01
     15  0.684194D-02  0.655292D-04 -0.821891D-02 -0.412252D-02  0.255851D-03
                6             7             8             9            10 
      6  0.522436D+00
      7 -0.910948D-01  0.303796D+00
      8 -0.190249D-02  0.272158D-02  0.410448D-01
      9 -0.964566D-01  0.812948D-01  0.745645D-02  0.316245D+00
     10  0.402830D-01 -0.143756D+00 -0.273413D-02 -0.354234D-01  0.553399D+00
     11  0.489257D-03 -0.375173D-02 -0.478491D-01 -0.828023D-03  0.241286D-01
     12 -0.103563D-01  0.160444D-01 -0.820373D-03 -0.252392D-01  0.242447D+00
     13  0.309853D-01  0.359334D-01  0.188707D-02 -0.124687D-01 -0.319843D+00
     14 -0.225666D-03  0.257003D-02  0.299053D-01 -0.511121D-02 -0.199440D-01
     15  0.497955D-02  0.959315D-02 -0.553185D-02 -0.174668D+00 -0.253764D+00
               11            12            13            14            15 
     11  0.591016D-01
     12  0.256925D-01  0.447611D+00
     13 -0.205887D-01 -0.250028D+00  0.247625D+00
     14 -0.390065D-01 -0.252151D-01  0.181925D-01  0.270874D-01
     15 -0.246015D-01 -0.423919D+00  0.241452D+00  0.298119D-01  0.601826D+00
 Force constants in internal coordinates: 
                1             2             3             4             5 
      1  0.436799D+00
      2  0.219775D-01  0.259212D+00
      3  0.499904D-02  0.173316D-01  0.207542D+00
      4 -0.121714D-01  0.225653D-01  0.148895D+00  0.721392D+00
      5  0.447698D-01  0.565270D-01 -0.240687D-01  0.211381D-01  0.250278D+00
      6  0.114650D-01  0.223445D-01  0.919378D-01  0.959797D-02 -0.865975D-02
      7  0.919188D-02 -0.732415D-01  0.121197D+00  0.117044D+00 -0.224072D-01
      8 -0.194474D-02  0.187257D-02  0.177640D-02 -0.119755D-02  0.272828D-02
      9 -0.304873D-02  0.551127D-02  0.367114D-02 -0.168931D-02  0.373984D-02
                6             7             8             9 
      6  0.520477D+00
      7  0.617893D-01  0.662599D+00
      8  0.386472D-02  0.299425D-02  0.200383D-01
      9  0.429893D-02  0.262895D-02  0.277667D-01  0.107469D+00
 Leave Link  716 at Sun Mar  6 20:07:13 2022, MaxMem= 16106127360 cpu:               1.2 elap:               0.1
 (Enter /sw/contrib/gaussian/g16/B01/g16/l103.exe)

 GradGradGradGradGradGradGradGradGradGradGradGradGradGradGradGradGradGrad
 Berny optimization.
 Search for a local minimum.
 Step number   1 out of a maximum of    2
 All quantities printed in internal units (Hartrees-Bohrs-Radians)
 Second derivative matrix not updated -- analytic derivatives used.
 The second derivative matrix:
                          r1        r2        r3        r4        a1
           r1           0.43680
           r2           0.02198   0.25921
           r3           0.00500   0.01733   0.20754
           r4          -0.01217   0.02257   0.14889   0.72139
           a1           0.04477   0.05653  -0.02407   0.02114   0.25028
           a2           0.01146   0.02234   0.09194   0.00960  -0.00866
           a3           0.00919  -0.07324   0.12120   0.11704  -0.02241
           d1          -0.00194   0.00187   0.00178  -0.00120   0.00273
           d2          -0.00305   0.00551   0.00367  -0.00169   0.00374
                          a2        a3        d1        d2
           a2           0.52048
           a3           0.06179   0.66260
           d1           0.00386   0.00299   0.02004
           d2           0.00430   0.00263   0.02777   0.10747
 ITU=  0
     Eigenvalues ---    0.01193   0.11441   0.12500   0.20350   0.27618
     Eigenvalues ---    0.44943   0.51499   0.60736   0.88302
 Angle between quadratic step and forces=  14.39 degrees.
 Linear search not attempted -- first point.
 Variable       Old X    -DE/DX   Delta X   Delta X   Delta X     New X
                                 (Linear)    (Quad)   (Total)
    r1        1.86209  -0.00006   0.00000   0.00042   0.00042   1.86251
    r2        2.69614   0.00029   0.00000   0.00007   0.00007   2.69621
    r3        2.60992  -0.00013   0.00000  -0.00285  -0.00285   2.60707
    r4        2.25782   0.00025   0.00000   0.00111   0.00111   2.25894
    a1        1.75642   0.00006   0.00000  -0.00108  -0.00108   1.75534
    a2        1.97463   0.00038   0.00000   0.00071   0.00071   1.97533
    a3        1.99550  -0.00006   0.00000  -0.00011  -0.00011   1.99539
    d1        0.00000   0.00163   0.00000   0.00088   0.00088   0.00088
    d2       -0.05795   0.00627   0.00000   0.05824   0.05824   0.00029
         Item               Value     Threshold  Converged?
 Maximum Force            0.006269     0.000450     NO 
 RMS     Force            0.002167     0.000300     NO 
 Maximum Displacement     0.058243     0.001800     NO 
 RMS     Displacement     0.019449     0.001200     NO 
 Predicted change in Energy=-1.837117D-04
                       ----------------------------
                       ! Non-Optimized Parameters !
                       ! (Angstroms and Degrees)  !
 ----------------------                            ----------------------
 !      Name          Value   Derivative information (Atomic Units)     !
 ------------------------------------------------------------------------
 !       r1          0.9856   -DE/DX =   -0.0001                        !
 !       r2          1.4268   -DE/DX =    0.0003                        !
 !       r3          1.3796   -DE/DX =   -0.0001                        !
 !       r4          1.1954   -DE/DX =    0.0002                        !
 !       a1        100.5738   -DE/DX =    0.0001                        !
 !       a2        113.1783   -DE/DX =    0.0004                        !
 !       a3        114.3276   -DE/DX =   -0.0001                        !
 !       d1          0.0506   -DE/DX =    0.0016                        !
 !       d2          0.0168   -DE/DX =    0.0063                        !
 ------------------------------------------------------------------------
 GradGradGradGradGradGradGradGradGradGradGradGradGradGradGradGradGradGrad

 Leave Link  103 at Sun Mar  6 20:07:13 2022, MaxMem= 16106127360 cpu:               0.6 elap:               0.0
 (Enter /sw/contrib/gaussian/g16/B01/g16/l9999.exe)

 ----------------------------------------------------------------------

 Electric dipole moment (input orientation):
 (Debye = 10**-18 statcoulomb cm , SI units = C m)
                  (au)            (Debye)         (10**-30 SI)
   Tot        0.431671D+00      0.109720D+01      0.365986D+01
   x         -0.110387D+00     -0.280575D+00     -0.935899D+00
   y          0.543875D-02      0.138239D-01      0.461116D-01
   z         -0.417283D+00     -0.106063D+01     -0.353788D+01

 Dipole polarizability, Alpha (input orientation).
 (esu units = cm**3 , SI units = C**2 m**2 J**-1)
 Alpha(0;0):
               (au)            (10**-24 esu)      (10**-40 SI)
   iso        0.261302D+02      0.387210D+01      0.430829D+01
   aniso      0.146663D+02      0.217332D+01      0.241815D+01
   xx         0.291722D+02      0.432288D+01      0.480985D+01
   yx        -0.360093D-01     -0.533602D-02     -0.593713D-02
   yy         0.176343D+02      0.261313D+01      0.290750D+01
   zx        -0.399733D+01     -0.592342D+00     -0.659070D+00
   zy         0.360769D+00      0.534605D-01      0.594828D-01
   zz         0.315841D+02      0.468028D+01      0.520752D+01

 ----------------------------------------------------------------------

 Dipole orientation:
     1          0.00000000          0.00000000          0.00000000
     8         -0.47617353         -0.02346102         -1.80002636
     8          1.95829730         -0.03407149         -2.95865415
     7          3.91570550         -0.00911454         -1.23250596
     8          3.25478757          0.13610127          0.92152849

 Electric dipole moment (dipole orientation):
 (Debye = 10**-18 statcoulomb cm , SI units = C m)
                  (au)            (Debye)         (10**-30 SI)
   Tot        0.431671D+00      0.109720D+01      0.365986D+01
   x          0.000000D+00      0.000000D+00      0.000000D+00
   y          0.000000D+00      0.000000D+00      0.000000D+00
   z          0.431671D+00      0.109720D+01      0.365986D+01

 Dipole polarizability, Alpha (dipole orientation).
 (esu units = cm**3 , SI units = C**2 m**2 J**-1)
 Alpha(0;0):
               (au)            (10**-24 esu)      (10**-40 SI)
   iso        0.261302D+02      0.387210D+01      0.430829D+01
   aniso      0.146663D+02      0.217332D+01      0.241815D+01
   xx         0.313059D+02      0.463906D+01      0.516165D+01
   yx         0.200736D+00      0.297460D-01      0.330968D-01
   yy         0.176453D+02      0.261477D+01      0.290932D+01
   zx         0.406803D+01      0.602820D+00      0.670727D+00
   zy         0.494977D+00      0.733480D-01      0.816106D-01
   zz         0.294394D+02      0.436247D+01      0.485390D+01

 ----------------------------------------------------------------------
 1\1\GINC-N2109\Freq\RMP2-FC\Aug-CC-pVTZ\H1N1O3\CGAVINH\06-Mar-2022\1\\
 #p freq mp2/aug-cc-pvtz density=current\\title\\0,1\H\O,1,r1\O,2,r2,1,
 a1\N,3,r3,2,a2,1,d1,0\O,4,r4,3,a3,2,d2,0\\r1=0.98537664\r2=1.42673666\
 r3=1.38110764\r4=1.19478846\a1=100.6355057\a2=113.13777052\a3=114.3339
 2022\d1=0.\d2=-3.32021761\\Version=ES64L-G16RevB.01\State=1-A\HF=-279.
 5063036\MP2=-280.4550583\RMSD=6.468e-09\RMSF=1.736e-03\ZeroPoint=0.023
 4231\Thermal=0.0273651\Dipole=-0.1103869,0.0054387,-0.4172834\DipoleDe
 riv=0.3165686,-0.0025169,0.0382203,-0.0032026,0.298176,0.0003176,-0.02
 39648,0.001728,0.1993293,-0.5272998,0.005615,0.2803635,0.0034508,-0.25
 44424,-0.0091769,-0.1053929,0.0022416,-0.1253412,0.0029722,0.0014171,0
 .3369139,-0.0088584,-0.0104582,0.0162903,0.442941,-0.0268524,-0.920812
 3,0.2000215,0.0114303,-0.1409016,-0.0066798,0.0135125,0.0334248,-0.667
 1,0.0403581,1.7164857,0.0077375,-0.0159454,-0.5145961,0.01529,-0.04678
 79,-0.0408558,0.3535167,-0.0174752,-0.8696615\Polar=29.172222,-0.03600
 93,17.6342615,-3.9973251,0.3607693,31.5841183\Quadrupole=0.1502931,0.6
 056131,-0.7559062,-0.043265,1.4069674,-0.0761094\PG=C01 [X(H1N1O3)]\NI
 mag=0\\0.07221436,0.00071089,0.00601998,0.02406054,-0.00058510,0.43679
 919,-0.05189812,0.00034869,-0.00474043,0.28107047,0.00010051,-0.002410
 90,-0.00020091,0.00132107,0.01213520,0.03223258,0.00048670,-0.42060245
 ,-0.01240608,0.00115220,0.52243587,-0.02513997,-0.00024104,-0.01583764
 ,-0.17083348,-0.00129884,-0.09109475,0.30379570,-0.00061014,-0.0041918
 2,0.00079826,-0.00126438,-0.01890924,-0.00190249,0.00272158,0.04104481
 ,-0.04396938,-0.00052194,-0.01988171,0.01056662,-0.00099527,-0.0964566
 3,0.08129484,0.00745645,0.31624535,-0.00572838,-0.00021387,0.00645816,
 -0.08407160,-0.00123663,0.04028296,-0.14375568,-0.00273413,-0.03542341
 ,0.55339873,0.00004713,0.00799716,-0.00075227,0.00016476,0.01975681,0.
 00048926,-0.00375173,-0.04784909,-0.00082802,0.02412858,0.05910159,-0.
 01916568,0.00055481,0.01190388,0.01070241,-0.00021187,-0.01035634,0.01
 604441,-0.00082037,-0.02523924,0.24244660,0.02569250,0.44761088,0.0105
 5212,-0.00060468,-0.00994063,0.02573273,0.00111389,0.03098529,0.035933
 43,0.00188707,-0.01246868,-0.31984306,-0.02058874,-0.25002773,0.247624
 79,-0.00024838,-0.00741442,0.00074001,-0.00057014,-0.01057186,-0.00022
 567,0.00257003,0.02990533,-0.00511121,-0.01994396,-0.03900647,-0.02521
 507,0.01819245,0.02708741,0.00684194,0.00006553,-0.00821891,-0.0041225
 2,0.00025585,0.00497955,0.00959315,-0.00553185,-0.17466778,-0.25376431
 ,-0.02460147,-0.42391919,0.24145175,0.02981193,0.60182634\\0.00003313,
 0.00088920,-0.00006306,0.00027158,0.00126820,0.00000017,-0.00018234,-0
 .00358885,0.00029974,-0.00042391,0.00446003,-0.00052960,0.00030154,-0.
 00302858,0.00029275\\\@


 AS FAR AS THE LAWS OF MATHEMATICS REFER TO REALITY,
 THEY ARE NOT CERTAIN; AND AS FAR AS THEY ARE CERTAIN,
 THEY DO NOT REFER TO REALITY.

                                         -- ALBERT EINSTEIN
 Job cpu time:       0 days  2 hours  2 minutes 20.2 seconds.
 Elapsed time:       0 days  0 hours  4 minutes 30.0 seconds.
 File lengths (MBytes):  RWF=   7239 Int=      0 D2E=      0 Chk=      8 Scr=      1
 Normal termination of Gaussian 16 at Sun Mar  6 20:07:14 2022.
