title                                                                   
Freq      RMP2-FC                                                     Aug-CC-pVTZ         
Number of atoms                            I                5
Info1-9                                    I   N=           9
          33          24           0           0           0         100
           6           2           1
Full Title                                 C   N=           1
title       
Route                                      C   N=           4
#p freq mp2/aug-cc-pvtz density=current         
Charge                                     I                0
Multiplicity                               I                1
Number of electrons                        I               32
Number of alpha electrons                  I               16
Number of beta electrons                   I               16
Number of basis functions                  I              207
Number of independent functions            I              207
Number of point charges in /Mol/           I                0
Number of translation vectors              I                0
Atomic numbers                             I   N=           5
           1           8           8           7           8
Nuclear charges                            R   N=           5
  1.00000000E+00  8.00000000E+00  8.00000000E+00  7.00000000E+00  8.00000000E+00
Current cartesian coordinates              R   N=          15
 -1.02019295E+00 -2.15170514E+00  2.20250926E-02 -2.41282419E+00 -9.15753923E-01
  2.29249312E-03 -1.02603271E+00  1.39636202E+00 -8.12345139E-03  1.55956816E+00
  1.04151215E+00  1.20505986E-02  2.20175888E+00 -1.12296809E+00 -7.46645206E-03
Number of symbols in /Mol/                 I                0
Force Field                                I                0
Atom Types                                 C   N=           5
                                                            
Int Atom Types                             I   N=           5
           0           0           0           0           0
MM charges                                 R   N=           5
  0.00000000E+00  0.00000000E+00  0.00000000E+00  0.00000000E+00  0.00000000E+00
Integer atomic weights                     I   N=           5
           1          16          16          14          16
Real atomic weights                        R   N=           5
  1.00782504E+00  1.59949146E+01  1.59949146E+01  1.40030740E+01  1.59949146E+01
Atom fragment info                         I   N=           5
           0           0           0           0           0
Atom residue num                           I   N=           5
           0           0           0           0           0
Nuclear spins                              I   N=           5
           1           0           0           2           0
Nuclear ZEff                               R   N=           5
 -1.00000000E+00 -5.60000000E+00 -5.60000000E+00 -4.55000000E+00 -5.60000000E+00
Nuclear ZNuc                               R   N=           5
  1.00000000E+00  8.00000000E+00  8.00000000E+00  7.00000000E+00  8.00000000E+00
Nuclear QMom                               R   N=           5
  0.00000000E+00  0.00000000E+00  0.00000000E+00  2.04400000E+00  0.00000000E+00
Nuclear GFac                               R   N=           5
  2.79284600E+00  0.00000000E+00  0.00000000E+00  4.03761000E-01  0.00000000E+00
MicOpt                                     I   N=           5
          -1          -1          -1          -1          -1
Number of residues                         I                0
Number of secondary structures             I                0
SymInf integers                            I   N=          26
           1           1           1           1           1           0
           0           0           0           0           0           0
           0           0           0           0           0           0
           0           0           0           0           0           0
           0           0
RotTr to input orientation                 R   N=          12
  6.63794780E-01  6.63741643E-03 -7.47885309E-01  7.47912243E-01 -8.48575637E-03
  6.63743376E-01 -1.94083133E-03 -9.99941967E-01 -1.05970058E-02  2.28652812E+00
  1.05364143E-02  6.65426112E-01
Number of contracted shells                I               65
Number of primitive shells                 I              119
Pure/Cartesian d shells                    I                0
Pure/Cartesian f shells                    I                0
Highest angular momentum                   I                3
Largest degree of contraction              I                7
Shell types                                I   N=          65
           0           0           0           0           1           1
           1          -2          -2           0           0           0
           0           0           1           1           1           1
          -2          -2          -2          -3          -3           0
           0           0           0           0           1           1
           1           1          -2          -2          -2          -3
          -3           0           0           0           0           0
           1           1           1           1          -2          -2
          -2          -3          -3           0           0           0
           0           0           1           1           1           1
          -2          -2          -2          -3          -3
Number of primitives per shell             I   N=          65
           3           1           1           1           1           1
           1           1           1           7           6           1
           1           1           3           1           1           1
           1           1           1           1           1           7
           6           1           1           1           3           1
           1           1           1           1           1           1
           1           7           6           1           1           1
           3           1           1           1           1           1
           1           1           1           7           6           1
           1           1           3           1           1           1
           1           1           1           1           1
Shell to atom map                          I   N=          65
           1           1           1           1           1           1
           1           1           1           2           2           2
           2           2           2           2           2           2
           2           2           2           2           2           3
           3           3           3           3           3           3
           3           3           3           3           3           3
           3           4           4           4           4           4
           4           4           4           4           4           4
           4           4           4           5           5           5
           5           5           5           5           5           5
           5           5           5           5           5
Primitive exponents                        R   N=         119
  3.38700000E+01  5.09500000E+00  1.15900000E+00  3.25800000E-01  1.02700000E-01
  2.52600000E-02  1.40700000E+00  3.88000000E-01  1.02000000E-01  1.05700000E+00
  2.47000000E-01  1.53300000E+04  2.29900000E+03  5.22400000E+02  1.47300000E+02
  4.75500000E+01  1.67600000E+01  6.20700000E+00  5.22400000E+02  1.47300000E+02
  4.75500000E+01  1.67600000E+01  6.20700000E+00  6.88200000E-01  1.75200000E+00
  2.38400000E-01  7.37600000E-02  3.44600000E+01  7.74900000E+00  2.28000000E+00
  7.15600000E-01  2.14000000E-01  5.97400000E-02  2.31400000E+00  6.45000000E-01
  2.14000000E-01  1.42800000E+00  5.00000000E-01  1.53300000E+04  2.29900000E+03
  5.22400000E+02  1.47300000E+02  4.75500000E+01  1.67600000E+01  6.20700000E+00
  5.22400000E+02  1.47300000E+02  4.75500000E+01  1.67600000E+01  6.20700000E+00
  6.88200000E-01  1.75200000E+00  2.38400000E-01  7.37600000E-02  3.44600000E+01
  7.74900000E+00  2.28000000E+00  7.15600000E-01  2.14000000E-01  5.97400000E-02
  2.31400000E+00  6.45000000E-01  2.14000000E-01  1.42800000E+00  5.00000000E-01
  1.14200000E+04  1.71200000E+03  3.89300000E+02  1.10000000E+02  3.55700000E+01
  1.25400000E+01  4.64400000E+00  3.89300000E+02  1.10000000E+02  3.55700000E+01
  1.25400000E+01  4.64400000E+00  5.11800000E-01  1.29300000E+00  1.78700000E-01
  5.76000000E-02  2.66300000E+01  5.94800000E+00  1.74200000E+00  5.55000000E-01
  1.72500000E-01  4.91000000E-02  1.65400000E+00  4.69000000E-01  1.51000000E-01
  1.09300000E+00  3.64000000E-01  1.53300000E+04  2.29900000E+03  5.22400000E+02
  1.47300000E+02  4.75500000E+01  1.67600000E+01  6.20700000E+00  5.22400000E+02
  1.47300000E+02  4.75500000E+01  1.67600000E+01  6.20700000E+00  6.88200000E-01
  1.75200000E+00  2.38400000E-01  7.37600000E-02  3.44600000E+01  7.74900000E+00
  2.28000000E+00  7.15600000E-01  2.14000000E-01  5.97400000E-02  2.31400000E+00
  6.45000000E-01  2.14000000E-01  1.42800000E+00  5.00000000E-01
Contraction coefficients                   R   N=         119
  2.54948632E-02  1.90362766E-01  8.52162022E-01  1.00000000E+00  1.00000000E+00
  1.00000000E+00  1.00000000E+00  1.00000000E+00  1.00000000E+00  1.00000000E+00
  1.00000000E+00  5.19808943E-04  4.02025621E-03  2.07128267E-02  8.10105536E-02
  2.35962985E-01  4.42653446E-01  3.57064423E-01 -4.42115008E-05 -1.22591041E-03
 -1.05517725E-02 -6.74452633E-02 -1.71198607E-01  1.07329856E+00  1.00000000E+00
  1.00000000E+00  1.00000000E+00  4.11634896E-02  2.57762836E-01  8.02419274E-01
  1.00000000E+00  1.00000000E+00  1.00000000E+00  1.00000000E+00  1.00000000E+00
  1.00000000E+00  1.00000000E+00  1.00000000E+00  5.19808943E-04  4.02025621E-03
  2.07128267E-02  8.10105536E-02  2.35962985E-01  4.42653446E-01  3.57064423E-01
 -4.42115008E-05 -1.22591041E-03 -1.05517725E-02 -6.74452633E-02 -1.71198607E-01
  1.07329856E+00  1.00000000E+00  1.00000000E+00  1.00000000E+00  4.11634896E-02
  2.57762836E-01  8.02419274E-01  1.00000000E+00  1.00000000E+00  1.00000000E+00
  1.00000000E+00  1.00000000E+00  1.00000000E+00  1.00000000E+00  1.00000000E+00
  5.34563860E-04  4.13435660E-03  2.12335358E-02  8.25006224E-02  2.38138871E-01
  4.42551547E-01  3.53757422E-01 -4.89867350E-05 -1.19527323E-03 -1.03490714E-02
 -6.48680190E-02 -1.71552477E-01  1.07289568E+00  1.00000000E+00  1.00000000E+00
  1.00000000E+00  3.98072123E-02  2.49002660E-01  8.10479727E-01  1.00000000E+00
  1.00000000E+00  1.00000000E+00  1.00000000E+00  1.00000000E+00  1.00000000E+00
  1.00000000E+00  1.00000000E+00  5.19808943E-04  4.02025621E-03  2.07128267E-02
  8.10105536E-02  2.35962985E-01  4.42653446E-01  3.57064423E-01 -4.42115008E-05
 -1.22591041E-03 -1.05517725E-02 -6.74452633E-02 -1.71198607E-01  1.07329856E+00
  1.00000000E+00  1.00000000E+00  1.00000000E+00  4.11634896E-02  2.57762836E-01
  8.02419274E-01  1.00000000E+00  1.00000000E+00  1.00000000E+00  1.00000000E+00
  1.00000000E+00  1.00000000E+00  1.00000000E+00  1.00000000E+00
Coordinates of each shell                  R   N=         195
 -1.02019295E+00 -2.15170514E+00  2.20250926E-02 -1.02019295E+00 -2.15170514E+00
  2.20250926E-02 -1.02019295E+00 -2.15170514E+00  2.20250926E-02 -1.02019295E+00
 -2.15170514E+00  2.20250926E-02 -1.02019295E+00 -2.15170514E+00  2.20250926E-02
 -1.02019295E+00 -2.15170514E+00  2.20250926E-02 -1.02019295E+00 -2.15170514E+00
  2.20250926E-02 -1.02019295E+00 -2.15170514E+00  2.20250926E-02 -1.02019295E+00
 -2.15170514E+00  2.20250926E-02 -2.41282419E+00 -9.15753923E-01  2.29249312E-03
 -2.41282419E+00 -9.15753923E-01  2.29249312E-03 -2.41282419E+00 -9.15753923E-01
  2.29249312E-03 -2.41282419E+00 -9.15753923E-01  2.29249312E-03 -2.41282419E+00
 -9.15753923E-01  2.29249312E-03 -2.41282419E+00 -9.15753923E-01  2.29249312E-03
 -2.41282419E+00 -9.15753923E-01  2.29249312E-03 -2.41282419E+00 -9.15753923E-01
  2.29249312E-03 -2.41282419E+00 -9.15753923E-01  2.29249312E-03 -2.41282419E+00
 -9.15753923E-01  2.29249312E-03 -2.41282419E+00 -9.15753923E-01  2.29249312E-03
 -2.41282419E+00 -9.15753923E-01  2.29249312E-03 -2.41282419E+00 -9.15753923E-01
  2.29249312E-03 -2.41282419E+00 -9.15753923E-01  2.29249312E-03 -1.02603271E+00
  1.39636202E+00 -8.12345139E-03 -1.02603271E+00  1.39636202E+00 -8.12345139E-03
 -1.02603271E+00  1.39636202E+00 -8.12345139E-03 -1.02603271E+00  1.39636202E+00
 -8.12345139E-03 -1.02603271E+00  1.39636202E+00 -8.12345139E-03 -1.02603271E+00
  1.39636202E+00 -8.12345139E-03 -1.02603271E+00  1.39636202E+00 -8.12345139E-03
 -1.02603271E+00  1.39636202E+00 -8.12345139E-03 -1.02603271E+00  1.39636202E+00
 -8.12345139E-03 -1.02603271E+00  1.39636202E+00 -8.12345139E-03 -1.02603271E+00
  1.39636202E+00 -8.12345139E-03 -1.02603271E+00  1.39636202E+00 -8.12345139E-03
 -1.02603271E+00  1.39636202E+00 -8.12345139E-03 -1.02603271E+00  1.39636202E+00
 -8.12345139E-03  1.55956816E+00  1.04151215E+00  1.20505986E-02  1.55956816E+00
  1.04151215E+00  1.20505986E-02  1.55956816E+00  1.04151215E+00  1.20505986E-02
  1.55956816E+00  1.04151215E+00  1.20505986E-02  1.55956816E+00  1.04151215E+00
  1.20505986E-02  1.55956816E+00  1.04151215E+00  1.20505986E-02  1.55956816E+00
  1.04151215E+00  1.20505986E-02  1.55956816E+00  1.04151215E+00  1.20505986E-02
  1.55956816E+00  1.04151215E+00  1.20505986E-02  1.55956816E+00  1.04151215E+00
  1.20505986E-02  1.55956816E+00  1.04151215E+00  1.20505986E-02  1.55956816E+00
  1.04151215E+00  1.20505986E-02  1.55956816E+00  1.04151215E+00  1.20505986E-02
  1.55956816E+00  1.04151215E+00  1.20505986E-02  2.20175888E+00 -1.12296809E+00
 -7.46645206E-03  2.20175888E+00 -1.12296809E+00 -7.46645206E-03  2.20175888E+00
 -1.12296809E+00 -7.46645206E-03  2.20175888E+00 -1.12296809E+00 -7.46645206E-03
  2.20175888E+00 -1.12296809E+00 -7.46645206E-03  2.20175888E+00 -1.12296809E+00
 -7.46645206E-03  2.20175888E+00 -1.12296809E+00 -7.46645206E-03  2.20175888E+00
 -1.12296809E+00 -7.46645206E-03  2.20175888E+00 -1.12296809E+00 -7.46645206E-03
  2.20175888E+00 -1.12296809E+00 -7.46645206E-03  2.20175888E+00 -1.12296809E+00
 -7.46645206E-03  2.20175888E+00 -1.12296809E+00 -7.46645206E-03  2.20175888E+00
 -1.12296809E+00 -7.46645206E-03  2.20175888E+00 -1.12296809E+00 -7.46645206E-03
Num ILSW                                   I              100
ILSW                                       I   N=         100
           0           0           0           0           2           0
           0           0           0           0           0          -1
           5           0           0           0           2           0
           0           0           0           0           1           0
           1           0           0           0           0           0
           0           0      100000           0          -1           0
           0           0           0           0           0           0
           0           0           0           1           1           0
           0 -2000000000           1           0           0           0
           0           0           4          52           0           0
           0           0           0           0           0           0
           0           0           0           5           4           1
           0           0           0           0           0           0
           0           0           0           0           0           0
           0           0           0           0           0           0
           0           0           0           0           0           0
           0           0           0           0
Num RLSW                                   I               52
RLSW                                       R   N=          52
  1.00000000E+00  1.00000000E+00  1.00000000E+00  1.00000000E+00  1.00000000E+00
  0.00000000E+00  0.00000000E+00  1.00000000E+00  0.00000000E+00  0.00000000E+00
  0.00000000E+00  0.00000000E+00  1.00000000E+00  0.00000000E+00  0.00000000E+00
  0.00000000E+00  0.00000000E+00  1.00000000E+00  0.00000000E+00  0.00000000E+00
  0.00000000E+00  0.00000000E+00  1.00000000E+00  0.00000000E+00  0.00000000E+00
  0.00000000E+00  0.00000000E+00  1.00000000E+00  0.00000000E+00  0.00000000E+00
  0.00000000E+00  0.00000000E+00  1.00000000E+00  0.00000000E+00  0.00000000E+00
  0.00000000E+00  0.00000000E+00  0.00000000E+00  1.00000000E+00  1.00000000E+00
  0.00000000E+00  1.00000000E+00  0.00000000E+00  0.00000000E+00  0.00000000E+00
  0.00000000E+00  0.00000000E+00  0.00000000E+00  0.00000000E+00  0.00000000E+00
  0.00000000E+00  0.00000000E+00
MxBond                                     I                2
NBond                                      I   N=           5
           1           2           2           2           1
IBond                                      I   N=          10
           2           0           1           3           2           4
           3           5           4           0
RBond                                      R   N=          10
  1.00000000E+00  0.00000000E+00  1.00000000E+00  1.00000000E+00  1.00000000E+00
  1.00000000E+00  1.00000000E+00  2.00000000E+00  2.00000000E+00  0.00000000E+00
Virial Ratio                               R      2.002227561081779E+00
SCF Energy                                 R     -2.795064132992291E+02
MP2 Energy                                 R     -2.804552174450762E+02
Total Energy                               R     -2.804552174450762E+02
Post-SCF wavefunction norm                 R      1.583729791564272E+00
RMS Force                                  R      6.418527596163734E-04
RMS Density                                R      5.751415139597036E-09
NImag                                      I                0
Job Status                                 I                1
Nuclear derivative order                   I                2
External E-field                           R   N=          35
  0.00000000E+00  0.00000000E+00  0.00000000E+00  0.00000000E+00  0.00000000E+00
  0.00000000E+00  0.00000000E+00  0.00000000E+00  0.00000000E+00  0.00000000E+00
  0.00000000E+00  0.00000000E+00  0.00000000E+00  0.00000000E+00  0.00000000E+00
  0.00000000E+00  0.00000000E+00  0.00000000E+00  0.00000000E+00  0.00000000E+00
  0.00000000E+00  0.00000000E+00  0.00000000E+00  0.00000000E+00  0.00000000E+00
  0.00000000E+00  0.00000000E+00  0.00000000E+00  0.00000000E+00  0.00000000E+00
  0.00000000E+00  0.00000000E+00  0.00000000E+00  0.00000000E+00  0.00000000E+00
IOpCl                                      I                0
IROHF                                      I                0
Alpha Orbital Energies                     R   N=         207
 -2.07197915E+01 -2.06872592E+01 -2.06682923E+01 -1.58260190E+01 -1.64428765E+00
 -1.50515683E+00 -1.29377143E+00 -9.60353878E-01 -8.34690671E-01 -7.58927165E-01
 -7.39964017E-01 -6.37385213E-01 -6.18844149E-01 -6.18288268E-01 -5.04720152E-01
 -4.97484401E-01  3.50660391E-02  6.02366648E-02  9.51177999E-02  1.00380084E-01
  1.19633834E-01  1.22668571E-01  1.49339447E-01  1.52043916E-01  1.77504880E-01
  1.80366544E-01  1.89762145E-01  2.11028790E-01  2.16715864E-01  2.42535078E-01
  2.46348410E-01  2.69010297E-01  3.12525179E-01  3.16930629E-01  3.38059776E-01
  3.43848924E-01  3.46783387E-01  3.92603433E-01  4.48911915E-01  4.88548602E-01
  5.05172098E-01  5.18475524E-01  5.44982018E-01  5.61155851E-01  5.99088544E-01
  6.20238537E-01  6.38663569E-01  6.89615921E-01  7.17022351E-01  7.24285365E-01
  7.43199150E-01  7.63718358E-01  7.67259778E-01  7.95608789E-01  8.06440507E-01
  8.39917622E-01  8.43158357E-01  8.51724726E-01  8.85336032E-01  9.07808565E-01
  9.30628711E-01  9.47973967E-01  9.54129547E-01  1.01828800E+00  1.03231430E+00
  1.06283429E+00  1.06598043E+00  1.09538306E+00  1.14422621E+00  1.15630338E+00
  1.16962320E+00  1.22243465E+00  1.22724528E+00  1.24597487E+00  1.35329235E+00
  1.36117152E+00  1.37163816E+00  1.46849878E+00  1.48537946E+00  1.50480358E+00
  1.54203092E+00  1.59590791E+00  1.59749426E+00  1.60643447E+00  1.62887044E+00
  1.69570042E+00  1.74067440E+00  1.80106196E+00  1.82982838E+00  1.88807295E+00
  1.89626471E+00  1.92930848E+00  1.97919804E+00  1.98970046E+00  2.05203574E+00
  2.12395658E+00  2.13042906E+00  2.16560396E+00  2.18787063E+00  2.24309049E+00
  2.26013716E+00  2.29430187E+00  2.35220870E+00  2.36639165E+00  2.38648727E+00
  2.40227785E+00  2.43368700E+00  2.46919135E+00  2.47952334E+00  2.52934334E+00
  2.53842711E+00  2.54950287E+00  2.55884914E+00  2.61605156E+00  2.63004481E+00
  2.67255156E+00  2.67420907E+00  2.75469264E+00  2.80955438E+00  2.81773337E+00
  2.84054799E+00  2.91877319E+00  2.98547415E+00  3.04720214E+00  3.05105415E+00
  3.11553004E+00  3.11814630E+00  3.17378746E+00  3.21336455E+00  3.30847260E+00
  3.33224645E+00  3.36106115E+00  3.47786988E+00  3.67825805E+00  3.86956243E+00
  3.93068672E+00  4.18432762E+00  4.22239467E+00  4.22618763E+00  4.26839597E+00
  4.36975854E+00  4.50011848E+00  4.52855195E+00  4.55606257E+00  4.59896118E+00
  4.69395319E+00  4.81015898E+00  4.89816840E+00  4.91476049E+00  4.94121184E+00
  4.99888140E+00  5.00566995E+00  5.10736395E+00  5.13317824E+00  5.17969003E+00
  5.25044350E+00  5.25863152E+00  5.31819172E+00  5.34707870E+00  5.35635190E+00
  5.54718163E+00  5.64489883E+00  5.70604410E+00  5.88922981E+00  5.99753868E+00
  6.26478523E+00  6.29603648E+00  6.36119886E+00  6.37685282E+00  6.59821709E+00
  6.65937680E+00  6.65972228E+00  6.68990690E+00  6.72635312E+00  6.79703843E+00
  6.80498725E+00  6.85110585E+00  6.96800021E+00  7.02065262E+00  7.06632066E+00
  7.08009486E+00  7.13875063E+00  7.17442271E+00  7.17679730E+00  7.20354595E+00
  7.24555925E+00  7.24792222E+00  7.27135531E+00  7.34926154E+00  7.39424338E+00
  7.42840539E+00  7.44240663E+00  7.46325059E+00  7.55963644E+00  7.66353228E+00
  7.66779368E+00  7.79462886E+00  7.88352271E+00  7.95286135E+00  8.06539616E+00
  8.30685065E+00  8.50039926E+00  8.65226850E+00  1.36191692E+01  1.47621489E+01
  1.51058905E+01  1.57654592E+01
Alpha MO coefficients                      R   N=       42849
  6.43813657E-05 -2.18751536E-05 -1.11487462E-03  1.27814570E-05  1.65829240E-05
  6.44124407E-05  3.03343069E-08  2.43091792E-04 -1.79376680E-04 -3.07955692E-06
  2.08221920E-04 -2.81965625E-04 -2.82861791E-06  4.22725731E-05 -2.76898414E-07
 -5.02429032E-07  4.23389083E-06 -2.76662631E-05  2.28683464E-04 -2.71181399E-06
 -1.43903564E-06 -2.12142288E-04  2.44353377E-05  3.07182826E-03 -9.55334842E-05
 -9.93841873E-05  3.54432708E-03  2.48279639E-03 -5.11668604E-05 -1.03735550E-04
  4.31970538E-07  4.18538141E-04  6.62282242E-04 -2.38669002E-06  9.35784817E-04
  2.06676189E-03 -5.50543295E-06  4.10843276E-04  3.50049377E-04  9.38734930E-07
  2.04787382E-05 -2.08781780E-08  7.35017622E-07  3.94724131E-05 -2.16994112E-05
 -4.43315867E-04 -1.98644839E-06 -8.32442354E-06 -5.03943918E-04  6.06748236E-04
 -3.64017147E-04 -3.83155462E-06 -7.72427190E-06 -5.46033076E-04  7.41120705E-04
  1.10705778E-06 -2.86290106E-05 -8.61213553E-05  7.53345795E-07 -6.26658130E-07
 -1.11254518E-04 -8.96648359E-06  1.36663719E-06 -1.37440590E-04 -1.63829854E-04
  1.16675534E-06 -4.39993337E-06 -3.39245517E-04  6.36487948E-05  9.76903866E-01
 -9.17364538E-03  4.34070269E-02  4.95891040E-04 -2.20988436E-03  9.09591499E-04
 -1.99700418E-03  1.64795693E-05 -1.07648441E-03  2.00553926E-03 -1.81282154E-05
  2.15481238E-03  9.81935422E-04  1.12165641E-05  1.22609838E-04  2.10948909E-04
 -2.07660160E-06  7.12981359E-06 -6.29331454E-07  7.73135492E-07  3.46584175E-05
 -1.59899076E-05  8.27109628E-04 -5.60946167E-06  7.13914484E-06 -3.05322178E-04
 -4.02059347E-04 -1.38800992E-04  9.87820632E-06 -4.74454777E-06  1.73930167E-04
 -6.31871036E-04  1.92450774E-06  5.21244255E-05 -6.01374442E-05 -3.40041160E-07
 -9.10330786E-08 -4.84347889E-05 -7.04125354E-06 -5.86714348E-07 -7.47979920E-05
 -5.40304605E-05 -2.39109137E-06 -1.37139111E-06 -4.68951586E-04  1.95148229E-04
  1.04442240E-04  4.57995397E-04 -3.23572861E-04 -8.30002539E-04  3.52913208E-04
  9.48496918E-05 -5.44110189E-05  9.00248584E-07 -1.22038018E-03  4.82185893E-04
 -8.19438226E-06  1.00824457E-03 -7.66796339E-05 -2.66854427E-06 -2.82764643E-04
  5.54046354E-05 -2.78107519E-06 -5.24953629E-05  1.18492956E-06 -4.61305990E-07
  9.47114574E-05 -9.56398407E-06 -4.15727579E-04  1.70697040E-05 -3.28996631E-06
  1.04352918E-03 -2.84273724E-04  2.71159027E-05  1.29022167E-06  1.12252686E-06
 -6.78096029E-05 -3.11350134E-04  2.23804171E-06  1.30584829E-04 -4.49682016E-05
 -3.45851971E-06  5.92863376E-07 -1.31698221E-04  5.68779425E-05  4.24139877E-06
  7.22880286E-05  1.11349875E-04 -8.89615611E-06 -2.59828509E-06 -4.87632732E-04
 -1.83305319E-04 -7.06390437E-04  4.57085998E-05 -7.03187160E-05  2.12767781E-04
 -1.78855809E-04  4.78766895E-05 -1.62690385E-05  6.80498028E-07 -2.86238958E-04
  1.04336800E-04 -3.89676782E-06 -6.20994779E-04 -5.29664422E-05  6.54504832E-06
  2.13027649E-04  7.88088933E-05  2.63539481E-06 -1.29595375E-05  7.11917064E-07
  1.99891132E-07  1.55308054E-05 -1.36646653E-06 -2.17630995E-06 -3.78435422E-06
 -1.66965012E-06 -3.92692308E-05 -1.59706371E-04 -2.20630518E-05 -1.10396858E-05
 -1.79951947E-07 -9.06872930E-05 -1.50107072E-04  6.92317160E-07  1.01364100E-05
 -3.81779513E-06 -6.69643226E-07  2.07809775E-07 -1.59202621E-05  1.72688056E-05
 -3.33343397E-06 -6.84311886E-05  2.52791064E-05  3.39242852E-06 -3.26665199E-06
  1.49125601E-04 -1.15043262E-04  3.99604165E-05  6.33781595E-05 -1.14508519E-04
 -2.98905896E-05 -2.18519406E-05 -2.15502658E-06  1.75828922E-07 -2.27896780E-04
 -9.33694238E-05  7.73897136E-07 -1.14608080E-04 -5.51436007E-05  2.48015979E-06
  1.32227402E-05  4.48207751E-07  5.02952009E-07  1.21461997E-05 -1.65422707E-05
  2.16034127E-05 -2.30368974E-06  2.29927681E-07  3.24628938E-05 -1.10492111E-04
 -2.59175243E-04  2.62597845E-05 -1.51827304E-05 -5.52762762E-04  1.58503373E-04
 -1.40292019E-05  6.61837131E-06  1.53350469E-07  2.53158381E-05 -3.35494726E-05
 -7.14004178E-07 -2.26340760E-04 -2.95187164E-06 -1.29180509E-06  7.82501088E-06
  6.67695790E-05 -2.43395183E-06 -1.46235979E-06 -3.45857671E-08 -2.13314176E-07
 -1.36508139E-05 -4.48231689E-06  2.13726787E-05 -1.54818629E-07  1.58341414E-06
  1.18841616E-04  1.51779400E-05  6.18810286E-05  3.59535210E-07  3.99327107E-06
 -8.30288861E-05 -4.62277922E-06  1.94040018E-07 -1.23141530E-05  3.66974080E-06
 -3.18956672E-07  2.05607199E-08  2.32619660E-05  9.04893576E-06 -3.62332150E-07
  3.26394303E-05 -2.07684233E-05  8.43252004E-07  1.08595784E-06  1.76709042E-05
  8.79615693E-06  7.34376594E-04  2.26554587E-05 -1.89764211E-05  2.99676749E-04
 -3.92584939E-04 -2.94420884E-05  1.21806015E-05 -1.53440970E-07  1.44045696E-04
 -8.46020707E-05  4.03363886E-07 -2.36090233E-06 -2.56220852E-04  5.34100086E-06
  4.21749612E-05  2.07499250E-04  2.39348046E-06 -4.04955221E-06 -2.55083277E-07
  1.90008852E-07 -1.82437851E-05 -2.52370837E-05 -5.15216686E-05  2.09968536E-06
 -9.51605716E-07  1.40331839E-04  3.98552270E-05 -6.50026522E-05  6.20503430E-06
 -1.41552916E-06  3.85145739E-05  3.13558029E-05  2.07672138E-07 -4.38146278E-06
  9.03233398E-07  2.40099234E-07  2.61156057E-07 -3.58499312E-07  8.19666903E-06
 -2.26381464E-06  1.17719096E-05 -2.24198885E-05  1.65825904E-06 -2.10137136E-06
  1.77472634E-04 -4.06558375E-05  2.37104047E-04  1.35773831E-03 -1.47079914E-04
 -6.95954827E-04  9.04787561E-04 -8.86024082E-06 -9.46597105E-05 -8.44633685E-07
  7.73085555E-04 -2.01722051E-03 -1.71011315E-05 -3.84584364E-04  3.37068510E-04
 -8.96618885E-06  3.21631592E-05 -3.57414447E-04 -3.11350873E-06 -1.27780265E-04
 -1.69215632E-06  3.67363542E-06 -2.12110738E-04 -1.47409003E-04 -4.60045657E-04
 -3.60519160E-06  1.83600430E-05 -1.05851998E-03 -3.00057399E-04 -4.19351192E-05
  4.52964323E-06  9.62186207E-07  1.29833342E-04  2.14607935E-05  4.13888441E-08
 -2.86079379E-05  2.47282076E-05  1.16054049E-06 -1.78631513E-07 -3.97345011E-06
  2.44883746E-05  6.66033415E-06  1.54055571E-05  2.07428541E-04  6.32617699E-06
  2.37212104E-06 -7.01031810E-05  3.09323686E-04  9.76645987E-01 -9.88628904E-03
  4.35754390E-02  3.69027464E-03 -8.94750649E-04 -9.01510698E-04  1.98284847E-03
  1.94800373E-05  1.07103893E-03 -2.32283484E-03 -2.16787453E-05 -4.26433987E-04
  7.01224939E-04  1.55088679E-05 -4.61889714E-05 -1.14095025E-04 -1.32715844E-06
 -1.93868902E-04  1.69757897E-06  3.66102481E-06 -6.37215759E-05 -5.80076978E-05
  4.08867042E-04  7.62918180E-06 -1.21905015E-05  7.18122775E-04  6.75555736E-04
 -2.05868365E-04 -5.38843628E-06  6.17303862E-06 -7.69608646E-05 -1.23556256E-04
  1.64067707E-06 -3.77935487E-05  5.95057011E-05  9.53507582E-07  4.32866358E-07
 -1.93936605E-05  2.39629783E-05  1.30349772E-06  1.75551591E-05  1.26563355E-04
  3.98405399E-06  3.23983720E-06 -2.48112712E-04  9.05369901E-05  3.74985816E-04
  1.99582033E-03  1.37715072E-03 -1.85582032E-05 -2.00071254E-04  1.86232900E-04
 -2.58728425E-06 -9.15376667E-04  6.02567732E-04 -1.36406789E-05 -3.91675395E-05
  2.66510393E-04 -7.48283480E-06 -2.36997789E-05 -5.62717831E-07 -7.59835976E-07
 -1.78738974E-05  3.97975923E-05 -2.16715861E-04  6.05909102E-06 -3.67722365E-06
  2.83306962E-04 -4.53102372E-04  9.76834428E-01 -9.18704097E-03  4.34654312E-02
  1.34396271E-04 -1.91128411E-03  2.14181952E-03  5.37340437E-04  9.58481080E-06
 -2.13477939E-03 -6.11226836E-04 -8.60727918E-06 -5.88636275E-05  7.59976772E-04
 -8.80679253E-06 -4.25739704E-06 -3.73915825E-04  4.93455045E-06  3.07188943E-05
  5.88142618E-07  9.61797977E-07  3.80982221E-05 -8.99870762E-05  7.65932797E-04
 -3.65597086E-06  1.20374969E-05  2.74167343E-04 -3.04823647E-04 -2.37941096E-04
 -6.17402550E-07 -1.81522904E-06  1.02236479E-04  3.19310957E-04 -1.78328179E-07
  6.40238131E-05  4.90468052E-05 -7.02822693E-07  7.87814519E-07  4.63440185E-05