 Entering Gaussian System, Link 0=g16
 Input=hoono_r2_1p448937.gjf
 Output=hoono_r2_1p448937.log
 Initial command:
 /sw/contrib/gaussian/g16/B01/g16/l1.exe "/scr/Gau-1884.inp" -scrdir="/scr/"
 Entering Link 1 = /sw/contrib/gaussian/g16/B01/g16/l1.exe PID=      1885.
  
 Copyright (c) 1988-2017, Gaussian, Inc.  All Rights Reserved.
  
 This is part of the Gaussian(R) 16 program.  It is based on
 the Gaussian(R) 09 system (copyright 2009, Gaussian, Inc.),
 the Gaussian(R) 03 system (copyright 2003, Gaussian, Inc.),
 the Gaussian(R) 98 system (copyright 1998, Gaussian, Inc.),
 the Gaussian(R) 94 system (copyright 1995, Gaussian, Inc.),
 the Gaussian 92(TM) system (copyright 1992, Gaussian, Inc.),
 the Gaussian 90(TM) system (copyright 1990, Gaussian, Inc.),
 the Gaussian 88(TM) system (copyright 1988, Gaussian, Inc.),
 the Gaussian 86(TM) system (copyright 1986, Carnegie Mellon
 University), and the Gaussian 82(TM) system (copyright 1983,
 Carnegie Mellon University). Gaussian is a federally registered
 trademark of Gaussian, Inc.
  
 This software contains proprietary and confidential information,
 including trade secrets, belonging to Gaussian, Inc.
  
 This software is provided under written license and may be
 used, copied, transmitted, or stored only in accord with that
 written license.
  
 The following legend is applicable only to US Government
 contracts under FAR:
  
                    RESTRICTED RIGHTS LEGEND
  
 Use, reproduction and disclosure by the US Government is
 subject to restrictions as set forth in subparagraphs (a)
 and (c) of the Commercial Computer Software - Restricted
 Rights clause in FAR 52.227-19.
  
 Gaussian, Inc.
 340 Quinnipiac St., Bldg. 40, Wallingford CT 06492
  
  
 ---------------------------------------------------------------
 Warning -- This program may not be used in any manner that
 competes with the business of Gaussian, Inc. or will provide
 assistance to any competitor of Gaussian, Inc.  The licensee
 of this program is prohibited from giving any competitor of
 Gaussian, Inc. access to this program.  By using this program,
 the user acknowledges that Gaussian, Inc. is engaged in the
 business of creating and licensing software in the field of
 computational chemistry and represents and warrants to the
 licensee that it is not a competitor of Gaussian, Inc. and that
 it will not use this program in any manner prohibited above.
 ---------------------------------------------------------------
  

 Cite this work as:
 Gaussian 16, Revision B.01,
 M. J. Frisch, G. W. Trucks, H. B. Schlegel, G. E. Scuseria, 
 M. A. Robb, J. R. Cheeseman, G. Scalmani, V. Barone, 
 G. A. Petersson, H. Nakatsuji, X. Li, M. Caricato, A. V. Marenich, 
 J. Bloino, B. G. Janesko, R. Gomperts, B. Mennucci, H. P. Hratchian, 
 J. V. Ortiz, A. F. Izmaylov, J. L. Sonnenberg, D. Williams-Young, 
 F. Ding, F. Lipparini, F. Egidi, J. Goings, B. Peng, A. Petrone, 
 T. Henderson, D. Ranasinghe, V. G. Zakrzewski, J. Gao, N. Rega, 
 G. Zheng, W. Liang, M. Hada, M. Ehara, K. Toyota, R. Fukuda, 
 J. Hasegawa, M. Ishida, T. Nakajima, Y. Honda, O. Kitao, H. Nakai, 
 T. Vreven, K. Throssell, J. A. Montgomery, Jr., J. E. Peralta, 
 F. Ogliaro, M. J. Bearpark, J. J. Heyd, E. N. Brothers, K. N. Kudin, 
 V. N. Staroverov, T. A. Keith, R. Kobayashi, J. Normand, 
 K. Raghavachari, A. P. Rendell, J. C. Burant, S. S. Iyengar, 
 J. Tomasi, M. Cossi, J. M. Millam, M. Klene, C. Adamo, R. Cammi, 
 J. W. Ochterski, R. L. Martin, K. Morokuma, O. Farkas, 
 J. B. Foresman, and D. J. Fox, Gaussian, Inc., Wallingford CT, 2016.
 
 ******************************************
 Gaussian 16:  ES64L-G16RevB.01 20-Dec-2017
                 6-Mar-2022 
 ******************************************
 %nproc=28
 Will use up to   28 processors via shared memory.
 %mem=120GB
 %chk=hoono_r2_1p448937.chk
 ---------------------------------------
 #p freq mp2/aug-cc-pvtz density=current
 ---------------------------------------
 1/10=4,30=1,38=1/1,3;
 2/12=2,17=6,18=5,40=1/2;
 3/5=16,6=1,7=10,11=9,25=1,30=1,71=2,140=1/1,2,3;
 4//1;
 5/5=2,38=5,98=1/2;
 8/6=3,8=1,10=1,19=11,30=-1/1;
 9/15=3,16=-3/6;
 11/6=1,8=1,15=11,17=12,24=-1,27=1,28=-2,29=300,32=6,42=3/1,2,10;
 10/6=2,21=1/2;
 8/6=4,8=1,10=1,19=11,30=-1/11,4;
 10/5=1,20=4/2;
 11/12=2,14=11,16=1,17=2,28=-2,42=3,76=2/2,10,12;
 6/7=2,8=2,9=2,10=2,22=-1/1;
 7/8=1,10=1,12=2,25=1,44=2/1,2,3,16;
 1/10=4,30=1/3;
 99//99;
 Leave Link    1 at Sun Mar  6 18:55:28 2022, MaxMem= 16106127360 cpu:               2.2 elap:               0.1
 (Enter /sw/contrib/gaussian/g16/B01/g16/l101.exe)
 -----
 title
 -----
 Symbolic Z-matrix:
 Charge =  0 Multiplicity = 1
 H
 O                    1    r1
 O                    2    r2       1    a1
 N                    3    r3       2    a2       1    d1       0
 O                    4    r4       3    a3       2    d2       0
       Variables:
  r1                    0.98538                  
  r2                    1.44894                  
  r3                    1.38111                  
  r4                    1.19479                  
  a1                  100.63551                  
  a2                  113.13777                  
  a3                  114.33392                  
  d1                    0.                       
  d2                    0.                       
 
 ITRead=  0  0  0  0  0
 MicOpt= -1 -1 -1 -1 -1
 NAtoms=      5 NQM=        5 NQMF=       0 NMMI=      0 NMMIF=      0
                NMic=       0 NMicF=      0.
                    Isotopes and Nuclear Properties:
 (Nuclear quadrupole moments (NQMom) in fm**2, nuclear magnetic moments (NMagM)
  in nuclear magnetons)

  Atom         1           2           3           4           5
 IAtWgt=           1          16          16          14          16
 AtmWgt=   1.0078250  15.9949146  15.9949146  14.0030740  15.9949146
 NucSpn=           1           0           0           2           0
 AtZEff=  -0.0000000  -0.0000000  -0.0000000  -0.0000000  -0.0000000
 NQMom=    0.0000000   0.0000000   0.0000000   2.0440000   0.0000000
 NMagM=    2.7928460   0.0000000   0.0000000   0.4037610   0.0000000
 AtZNuc=   1.0000000   8.0000000   8.0000000   7.0000000   8.0000000
 Leave Link  101 at Sun Mar  6 18:55:28 2022, MaxMem= 16106127360 cpu:               2.9 elap:               0.1
 (Enter /sw/contrib/gaussian/g16/B01/g16/l103.exe)

 GradGradGradGradGradGradGradGradGradGradGradGradGradGradGradGradGradGrad
 Berny optimization.
 Initialization pass.
                       ----------------------------
                       !    Initial Parameters    !
                       ! (Angstroms and Degrees)  !
 ----------------------                            ----------------------
 !      Name          Value   Derivative information (Atomic Units)     !
 ------------------------------------------------------------------------
 !       r1          0.9854   calculate D2E/DX2 analytically            !
 !       r2          1.4489   calculate D2E/DX2 analytically            !
 !       r3          1.3811   calculate D2E/DX2 analytically            !
 !       r4          1.1948   calculate D2E/DX2 analytically            !
 !       a1        100.6355   calculate D2E/DX2 analytically            !
 !       a2        113.1378   calculate D2E/DX2 analytically            !
 !       a3        114.3339   calculate D2E/DX2 analytically            !
 !       d1          0.0      calculate D2E/DX2 analytically            !
 !       d2          0.0      calculate D2E/DX2 analytically            !
 ------------------------------------------------------------------------
 Trust Radius=3.00D-01 FncErr=1.00D-07 GrdErr=1.00D-07 EigMax=2.50D+02 EigMin=1.00D-04
 Number of steps in this run=      2 maximum allowed number of steps=      2.
 GradGradGradGradGradGradGradGradGradGradGradGradGradGradGradGradGradGrad

 Leave Link  103 at Sun Mar  6 18:55:28 2022, MaxMem= 16106127360 cpu:               1.5 elap:               0.1
 (Enter /sw/contrib/gaussian/g16/B01/g16/l202.exe)
                          Input orientation:                          
 ---------------------------------------------------------------------
 Center     Atomic      Atomic             Coordinates (Angstroms)
 Number     Number       Type             X           Y           Z
 ---------------------------------------------------------------------
      1          1           0        0.000000    0.000000    0.000000
      2          8           0        0.000000    0.000000    0.985377
      3          8           0        1.424047    0.000000    1.252793
      4          7           0        2.191816    0.000000    0.104756
      5          8           0        1.560571    0.000000   -0.909665
 ---------------------------------------------------------------------
                    Distance matrix (angstroms):
                    1          2          3          4          5
     1  H    0.000000
     2  O    0.985377   0.000000
     3  O    1.896681   1.448938   0.000000
     4  N    2.194317   2.362107   1.381108   0.000000
     5  O    1.806342   2.454906   2.166763   1.194788   0.000000
 Stoichiometry    HNO3
 Framework group  CS[SG(HNO3)]
 Deg. of freedom     7
 Full point group                 CS      NOp   2
 Largest Abelian subgroup         CS      NOp   2
 Largest concise Abelian subgroup C1      NOp   1
                         Standard orientation:                         
 ---------------------------------------------------------------------
 Center     Atomic      Atomic             Coordinates (Angstroms)
 Number     Number       Type             X           Y           Z
 ---------------------------------------------------------------------
      1          1           0        1.120103   -0.611191    0.000000
      2          8           0        1.332770    0.350963   -0.000000
      3          8           0       -0.000000    0.919420   -0.000000
      4          7           0       -0.997448   -0.035858    0.000000
      5          8           0       -0.600016   -1.162609    0.000000
 ---------------------------------------------------------------------
 Rotational constants (GHZ):          21.0269999           8.0460336           5.8192740
 Leave Link  202 at Sun Mar  6 18:55:28 2022, MaxMem= 16106127360 cpu:               0.5 elap:               0.0
 (Enter /sw/contrib/gaussian/g16/B01/g16/l301.exe)
 Standard basis: Aug-CC-pVTZ (5D, 7F)
 Ernie: Thresh=  0.10000D-02 Tol=  0.10000D-05 Strict=F.
 Ernie:  12 primitive shells out of 131 were deleted.
 There are   166 symmetry adapted cartesian basis functions of A'  symmetry.
 There are    79 symmetry adapted cartesian basis functions of A"  symmetry.
 There are   136 symmetry adapted basis functions of A'  symmetry.
 There are    71 symmetry adapted basis functions of A"  symmetry.
   207 basis functions,   315 primitive gaussians,   245 cartesian basis functions
    16 alpha electrons       16 beta electrons
       nuclear repulsion energy       122.1649111254 Hartrees.
 IExCor=    0 DFT=F Ex=HF Corr=None ExCW=0 ScaHFX=  1.000000
 ScaDFX=  1.000000  1.000000  1.000000  1.000000 ScalE2=  1.000000  1.000000
 IRadAn=      5 IRanWt=     -1 IRanGd=            0 ICorTp=0 IEmpDi=  4
 NAtoms=    5 NActive=    5 NUniq=    5 SFac= 1.00D+00 NAtFMM=   60 NAOKFM=F Big=F
 Integral buffers will be    131072 words long.
 Raffenetti 1 integral format.
 Two-electron integral symmetry is turned on.
 Leave Link  301 at Sun Mar  6 18:55:28 2022, MaxMem= 16106127360 cpu:               1.7 elap:               0.1
 (Enter /sw/contrib/gaussian/g16/B01/g16/l302.exe)
 NPDir=0 NMtPBC=     1 NCelOv=     1 NCel=       1 NClECP=     1 NCelD=      1
         NCelK=      1 NCelE2=     1 NClLst=     1 CellRange=     0.0.
 One-electron integrals computed using PRISM.
 One-electron integral symmetry used in STVInt
 NBasis=   207 RedAO= T EigKep=  1.32D-04  NBF=   136    71
 NBsUse=   207 1.00D-06 EigRej= -1.00D+00 NBFU=   136    71
 Leave Link  302 at Sun Mar  6 18:55:28 2022, MaxMem= 16106127360 cpu:               4.3 elap:               0.2
 (Enter /sw/contrib/gaussian/g16/B01/g16/l303.exe)
 DipDrv:  MaxL=1.
 Leave Link  303 at Sun Mar  6 18:55:28 2022, MaxMem= 16106127360 cpu:               0.8 elap:               0.1
 (Enter /sw/contrib/gaussian/g16/B01/g16/l401.exe)
 ExpMin= 2.53D-02 ExpMax= 1.53D+04 ExpMxC= 5.22D+02 IAcc=3 IRadAn=         5 AccDes= 0.00D+00
 Harris functional with IExCor=  205 and IRadAn=       5 diagonalized for initial guess.
 HarFok:  IExCor=  205 AccDes= 0.00D+00 IRadAn=         5 IDoV= 1 UseB2=F ITyADJ=14
 ICtDFT=  3500011 ScaDFX=  1.000000  1.000000  1.000000  1.000000
 FoFCou: FMM=F IPFlag=           0 FMFlag=      100000 FMFlg1=           0
         NFxFlg=           0 DoJE=T BraDBF=F KetDBF=T FulRan=T
         wScrn=  0.000000 ICntrl=       500 IOpCl=  0 I1Cent=   200000004 NGrid=           0
         NMat0=    1 NMatS0=      1 NMatT0=    0 NMatD0=    1 NMtDS0=    0 NMtDT0=    0
 Petite list used in FoFCou.
 Harris En= -279.644200686377    
 JPrj=0 DoOrth=F DoCkMO=F.
 Initial guess orbital symmetries:
       Occupied  (A') (A') (A') (A') (A') (A') (A') (A') (A') (A')
                 (A") (A') (A') (A") (A") (A')
       Virtual   (A") (A') (A') (A') (A') (A") (A') (A') (A') (A')
                 (A") (A') (A") (A') (A') (A") (A') (A') (A") (A')
                 (A') (A') (A') (A') (A") (A') (A') (A') (A") (A')
                 (A') (A") (A") (A') (A') (A") (A') (A") (A') (A")
                 (A') (A") (A') (A") (A') (A') (A') (A") (A') (A')
                 (A') (A") (A') (A") (A') (A") (A') (A') (A') (A")
                 (A') (A') (A") (A') (A') (A') (A") (A") (A') (A')
                 (A") (A') (A") (A") (A') (A') (A") (A') (A') (A')
                 (A") (A') (A') (A") (A') (A") (A") (A') (A') (A')
                 (A') (A") (A') (A") (A') (A') (A") (A') (A") (A')
                 (A") (A') (A") (A') (A") (A') (A') (A') (A") (A')
                 (A") (A') (A') (A') (A") (A') (A') (A') (A") (A')
                 (A") (A') (A') (A") (A") (A") (A") (A') (A') (A')
                 (A') (A') (A') (A") (A') (A") (A') (A") (A') (A')
                 (A") (A') (A") (A') (A') (A") (A') (A') (A') (A')
                 (A") (A') (A') (A") (A") (A') (A") (A') (A") (A')
                 (A') (A") (A") (A') (A") (A') (A') (A") (A") (A')
                 (A") (A") (A") (A') (A') (A") (A') (A') (A") (A')
                 (A') (A') (A') (A') (A') (A') (A') (A') (A') (A')
                 (A')
 The electronic state of the initial guess is 1-A'.
 Leave Link  401 at Sun Mar  6 18:55:29 2022, MaxMem= 16106127360 cpu:               7.1 elap:               0.3
 (Enter /sw/contrib/gaussian/g16/B01/g16/l502.exe)
 Keep R1 ints in memory in symmetry-blocked form, NReq=348887737.
 FoFCou: FMM=F IPFlag=           0 FMFlag=           0 FMFlg1=           0
         NFxFlg=           0 DoJE=F BraDBF=F KetDBF=F FulRan=T
         wScrn=  0.000000 ICntrl=       600 IOpCl=  0 I1Cent=           0 NGrid=           0
         NMat0=    1 NMatS0=  21528 NMatT0=    0 NMatD0=    1 NMtDS0=    0 NMtDT0=    0
 Petite list used in FoFCou.
 Closed shell SCF:
 Using DIIS extrapolation, IDIIS=  1040.
 NGot= 16106127360 LenX= 15988850015 LenY= 15988789549
 Requested convergence on RMS density matrix=1.00D-08 within 128 cycles.
 Requested convergence on MAX density matrix=1.00D-06.
 Requested convergence on             energy=1.00D-06.
 No special actions if energy rises.

 Cycle   1  Pass 1  IDiag  1:
 E= -279.360317211081    
 DIIS: error= 2.76D-02 at cycle   1 NSaved=   1.
 NSaved= 1 IEnMin= 1 EnMin= -279.360317211081     IErMin= 1 ErrMin= 2.76D-02
 ErrMax= 2.76D-02  0.00D+00 EMaxC= 1.00D-01 BMatC= 4.52D-01 BMatP= 4.52D-01
 IDIUse=3 WtCom= 7.24D-01 WtEn= 2.76D-01
 Coeff-Com:  0.100D+01
 Coeff-En:   0.100D+01
 Coeff:      0.100D+01
 Gap=     0.498 Goal=   None    Shift=    0.000
 GapD=    0.498 DampG=2.000 DampE=0.500 DampFc=1.0000 IDamp=-1.
 RMSDP=1.69D-03 MaxDP=8.76D-02              OVMax= 1.26D-01

 Cycle   2  Pass 1  IDiag  1:
 E= -279.441439652969     Delta-E=       -0.081122441888 Rises=F Damp=F
 DIIS: error= 1.97D-02 at cycle   2 NSaved=   2.
 NSaved= 2 IEnMin= 2 EnMin= -279.441439652969     IErMin= 2 ErrMin= 1.97D-02
 ErrMax= 1.97D-02  0.00D+00 EMaxC= 1.00D-01 BMatC= 9.05D-02 BMatP= 4.52D-01
 IDIUse=3 WtCom= 8.03D-01 WtEn= 1.97D-01
 Coeff-Com:  0.226D+00 0.774D+00
 Coeff-En:   0.104D+00 0.896D+00
 Coeff:      0.202D+00 0.798D+00
 Gap=     0.564 Goal=   None    Shift=    0.000
 RMSDP=9.80D-04 MaxDP=3.67D-02 DE=-8.11D-02 OVMax= 9.13D-02

 Cycle   3  Pass 1  IDiag  1:
 E= -279.482160469970     Delta-E=       -0.040720817001 Rises=F Damp=F
 DIIS: error= 1.12D-02 at cycle   3 NSaved=   3.
 NSaved= 3 IEnMin= 3 EnMin= -279.482160469970     IErMin= 3 ErrMin= 1.12D-02
 ErrMax= 1.12D-02  0.00D+00 EMaxC= 1.00D-01 BMatC= 3.11D-02 BMatP= 9.05D-02
 IDIUse=3 WtCom= 8.88D-01 WtEn= 1.12D-01
 Coeff-Com: -0.352D-01 0.359D+00 0.677D+00
 Coeff-En:   0.000D+00 0.209D+00 0.791D+00
 Coeff:     -0.313D-01 0.342D+00 0.690D+00
 Gap=     0.545 Goal=   None    Shift=    0.000
 RMSDP=4.13D-04 MaxDP=1.56D-02 DE=-4.07D-02 OVMax= 3.94D-02

 Cycle   4  Pass 1  IDiag  1:
 E= -279.503536465599     Delta-E=       -0.021375995630 Rises=F Damp=F
 DIIS: error= 1.62D-03 at cycle   4 NSaved=   4.
 NSaved= 4 IEnMin= 4 EnMin= -279.503536465599     IErMin= 4 ErrMin= 1.62D-03
 ErrMax= 1.62D-03  0.00D+00 EMaxC= 1.00D-01 BMatC= 6.41D-04 BMatP= 3.11D-02
 IDIUse=3 WtCom= 9.84D-01 WtEn= 1.62D-02
 Coeff-Com: -0.125D-01 0.485D-01 0.162D+00 0.802D+00
 Coeff-En:   0.000D+00 0.000D+00 0.000D+00 0.100D+01
 Coeff:     -0.123D-01 0.477D-01 0.160D+00 0.805D+00
 Gap=     0.532 Goal=   None    Shift=    0.000
 RMSDP=9.94D-05 MaxDP=2.44D-03 DE=-2.14D-02 OVMax= 1.20D-02

 Cycle   5  Pass 1  IDiag  1:
 E= -279.504369526125     Delta-E=       -0.000833060525 Rises=F Damp=F
 DIIS: error= 1.07D-03 at cycle   5 NSaved=   5.
 NSaved= 5 IEnMin= 5 EnMin= -279.504369526125     IErMin= 5 ErrMin= 1.07D-03
 ErrMax= 1.07D-03  0.00D+00 EMaxC= 1.00D-01 BMatC= 1.05D-04 BMatP= 6.41D-04
 IDIUse=3 WtCom= 9.89D-01 WtEn= 1.07D-02
 Coeff-Com:  0.551D-02-0.660D-01-0.113D+00 0.603D-01 0.111D+01
 Coeff-En:   0.000D+00 0.000D+00 0.000D+00 0.000D+00 0.100D+01
 Coeff:      0.545D-02-0.653D-01-0.112D+00 0.596D-01 0.111D+01
 Gap=     0.535 Goal=   None    Shift=    0.000
 RMSDP=8.02D-05 MaxDP=2.11D-03 DE=-8.33D-04 OVMax= 1.27D-02

 Cycle   6  Pass 1  IDiag  1:
 E= -279.504735749250     Delta-E=       -0.000366223126 Rises=F Damp=F
 DIIS: error= 3.21D-04 at cycle   6 NSaved=   6.
 NSaved= 6 IEnMin= 6 EnMin= -279.504735749250     IErMin= 6 ErrMin= 3.21D-04
 ErrMax= 3.21D-04  0.00D+00 EMaxC= 1.00D-01 BMatC= 2.37D-05 BMatP= 1.05D-04
 IDIUse=3 WtCom= 9.97D-01 WtEn= 3.21D-03
 Coeff-Com:  0.184D-02-0.669D-02-0.172D-01-0.173D+00 0.175D-02 0.119D+01
 Coeff-En:   0.000D+00 0.000D+00 0.000D+00 0.000D+00 0.000D+00 0.100D+01
 Coeff:      0.184D-02-0.667D-02-0.171D-01-0.173D+00 0.175D-02 0.119D+01
 Gap=     0.535 Goal=   None    Shift=    0.000
 RMSDP=4.58D-05 MaxDP=1.07D-03 DE=-3.66D-04 OVMax= 5.89D-03

 Cycle   7  Pass 1  IDiag  1:
 E= -279.504819598961     Delta-E=       -0.000083849710 Rises=F Damp=F
 DIIS: error= 1.30D-04 at cycle   7 NSaved=   7.
 NSaved= 7 IEnMin= 7 EnMin= -279.504819598961     IErMin= 7 ErrMin= 1.30D-04
 ErrMax= 1.30D-04  0.00D+00 EMaxC= 1.00D-01 BMatC= 3.64D-06 BMatP= 2.37D-05
 IDIUse=3 WtCom= 9.99D-01 WtEn= 1.30D-03
 Coeff-Com: -0.104D-02 0.110D-01 0.244D-01 0.107D-01-0.180D+00-0.113D+00
 Coeff-Com:  0.125D+01
 Coeff-En:   0.000D+00 0.000D+00 0.000D+00 0.000D+00 0.000D+00 0.000D+00
 Coeff-En:   0.100D+01
 Coeff:     -0.104D-02 0.110D-01 0.243D-01 0.107D-01-0.180D+00-0.113D+00
 Coeff:      0.125D+01
 Gap=     0.536 Goal=   None    Shift=    0.000
 RMSDP=1.71D-05 MaxDP=4.83D-04 DE=-8.38D-05 OVMax= 2.21D-03

 Cycle   8  Pass 1  IDiag  1:
 E= -279.504831379695     Delta-E=       -0.000011780735 Rises=F Damp=F
 DIIS: error= 4.80D-05 at cycle   8 NSaved=   8.
 NSaved= 8 IEnMin= 8 EnMin= -279.504831379695     IErMin= 8 ErrMin= 4.80D-05
 ErrMax= 4.80D-05  0.00D+00 EMaxC= 1.00D-01 BMatC= 6.39D-07 BMatP= 3.64D-06
 IDIUse=1 WtCom= 1.00D+00 WtEn= 0.00D+00
 Coeff-Com: -0.574D-03 0.413D-02 0.993D-02 0.246D-01-0.583D-01-0.197D+00
 Coeff-Com:  0.356D+00 0.860D+00
 Coeff:     -0.574D-03 0.413D-02 0.993D-02 0.246D-01-0.583D-01-0.197D+00
 Coeff:      0.356D+00 0.860D+00
 Gap=     0.536 Goal=   None    Shift=    0.000
 RMSDP=5.68D-06 MaxDP=1.59D-04 DE=-1.18D-05 OVMax= 6.81D-04

 Cycle   9  Pass 1  IDiag  1:
 E= -279.504832848524     Delta-E=       -0.000001468828 Rises=F Damp=F
 DIIS: error= 2.45D-05 at cycle   9 NSaved=   9.
 NSaved= 9 IEnMin= 9 EnMin= -279.504832848524     IErMin= 9 ErrMin= 2.45D-05
 ErrMax= 2.45D-05  0.00D+00 EMaxC= 1.00D-01 BMatC= 1.13D-07 BMatP= 6.39D-07
 IDIUse=1 WtCom= 1.00D+00 WtEn= 0.00D+00
 Coeff-Com:  0.237D-03-0.247D-02-0.522D-02-0.484D-02 0.454D-01 0.474D-01
 Coeff-Com: -0.328D+00 0.678D-02 0.124D+01
 Coeff:      0.237D-03-0.247D-02-0.522D-02-0.484D-02 0.454D-01 0.474D-01
 Coeff:     -0.328D+00 0.678D-02 0.124D+01
 Gap=     0.536 Goal=   None    Shift=    0.000
 RMSDP=2.43D-06 MaxDP=6.44D-05 DE=-1.47D-06 OVMax= 2.53D-04

 Cycle  10  Pass 1  IDiag  1:
 E= -279.504833107296     Delta-E=       -0.000000258772 Rises=F Damp=F
 DIIS: error= 5.72D-06 at cycle  10 NSaved=  10.
 NSaved=10 IEnMin=10 EnMin= -279.504833107296     IErMin=10 ErrMin= 5.72D-06
 ErrMax= 5.72D-06  0.00D+00 EMaxC= 1.00D-01 BMatC= 8.19D-09 BMatP= 1.13D-07
 IDIUse=1 WtCom= 1.00D+00 WtEn= 0.00D+00
 Coeff-Com: -0.415D-04 0.517D-03 0.125D-02-0.184D-02-0.115D-01 0.512D-02
 Coeff-Com:  0.745D-01-0.430D-01-0.466D+00 0.144D+01
 Coeff:     -0.415D-04 0.517D-03 0.125D-02-0.184D-02-0.115D-01 0.512D-02
 Coeff:      0.745D-01-0.430D-01-0.466D+00 0.144D+01
 Gap=     0.536 Goal=   None    Shift=    0.000
 RMSDP=7.07D-07 MaxDP=2.52D-05 DE=-2.59D-07 OVMax= 7.47D-05

 Cycle  11  Pass 1  IDiag  1:
 E= -279.504833132399     Delta-E=       -0.000000025104 Rises=F Damp=F
 DIIS: error= 2.16D-06 at cycle  11 NSaved=  11.
 NSaved=11 IEnMin=11 EnMin= -279.504833132399     IErMin=11 ErrMin= 2.16D-06
 ErrMax= 2.16D-06  0.00D+00 EMaxC= 1.00D-01 BMatC= 8.36D-10 BMatP= 8.19D-09
 IDIUse=1 WtCom= 1.00D+00 WtEn= 0.00D+00
 Coeff-Com: -0.151D-04 0.150D-03 0.311D-03 0.828D-03-0.184D-02-0.701D-02
 Coeff-Com:  0.164D-01 0.210D-01-0.415D-01-0.338D+00 0.135D+01
 Coeff:     -0.151D-04 0.150D-03 0.311D-03 0.828D-03-0.184D-02-0.701D-02
 Coeff:      0.164D-01 0.210D-01-0.415D-01-0.338D+00 0.135D+01
 Gap=     0.536 Goal=   None    Shift=    0.000
 RMSDP=2.45D-07 MaxDP=9.00D-06 DE=-2.51D-08 OVMax= 2.83D-05

 Cycle  12  Pass 1  IDiag  1:
 E= -279.504833135428     Delta-E=       -0.000000003029 Rises=F Damp=F
 DIIS: error= 7.34D-07 at cycle  12 NSaved=  12.
 NSaved=12 IEnMin=12 EnMin= -279.504833135428     IErMin=12 ErrMin= 7.34D-07
 ErrMax= 7.34D-07  0.00D+00 EMaxC= 1.00D-01 BMatC= 8.90D-11 BMatP= 8.36D-10
 IDIUse=1 WtCom= 1.00D+00 WtEn= 0.00D+00
 Coeff-Com:  0.242D-05-0.430D-04-0.949D-04 0.155D-03 0.112D-02-0.878D-03
 Coeff-Com: -0.704D-02 0.603D-02 0.425D-01-0.124D+00-0.154D+00 0.124D+01
 Coeff:      0.242D-05-0.430D-04-0.949D-04 0.155D-03 0.112D-02-0.878D-03
 Coeff:     -0.704D-02 0.603D-02 0.425D-01-0.124D+00-0.154D+00 0.124D+01
 Gap=     0.536 Goal=   None    Shift=    0.000
 RMSDP=8.53D-08 MaxDP=2.74D-06 DE=-3.03D-09 OVMax= 9.78D-06

 Cycle  13  Pass 1  IDiag  1:
 E= -279.504833135742     Delta-E=       -0.000000000314 Rises=F Damp=F
 DIIS: error= 1.64D-07 at cycle  13 NSaved=  13.
 NSaved=13 IEnMin=13 EnMin= -279.504833135742     IErMin=13 ErrMin= 1.64D-07
 ErrMax= 1.64D-07  0.00D+00 EMaxC= 1.00D-01 BMatC= 7.88D-12 BMatP= 8.90D-11
 IDIUse=1 WtCom= 1.00D+00 WtEn= 0.00D+00
 Coeff-Com:  0.126D-05-0.115D-04-0.161D-04-0.122D-03 0.187D-04 0.965D-03
 Coeff-Com: -0.899D-03-0.271D-02-0.307D-02 0.599D-01-0.139D+00-0.155D+00
 Coeff-Com:  0.124D+01
 Coeff:      0.126D-05-0.115D-04-0.161D-04-0.122D-03 0.187D-04 0.965D-03
 Coeff:     -0.899D-03-0.271D-02-0.307D-02 0.599D-01-0.139D+00-0.155D+00
 Coeff:      0.124D+01
 Gap=     0.536 Goal=   None    Shift=    0.000
 RMSDP=2.39D-08 MaxDP=7.02D-07 DE=-3.14D-10 OVMax= 2.14D-06

 Cycle  14  Pass 1  IDiag  1:
 E= -279.504833135766     Delta-E=       -0.000000000024 Rises=F Damp=F
 DIIS: error= 4.14D-08 at cycle  14 NSaved=  14.
 NSaved=14 IEnMin=14 EnMin= -279.504833135766     IErMin=14 ErrMin= 4.14D-08
 ErrMax= 4.14D-08  0.00D+00 EMaxC= 1.00D-01 BMatC= 5.63D-13 BMatP= 7.88D-12
 IDIUse=1 WtCom= 1.00D+00 WtEn= 0.00D+00
 Coeff-Com: -0.320D-06 0.470D-05 0.915D-05-0.223D-05-0.114D-03 0.468D-04
 Coeff-Com:  0.653D-03-0.204D-03-0.370D-02 0.724D-02 0.196D-01-0.874D-01
 Coeff-Com: -0.555D-01 0.112D+01
 Coeff:     -0.320D-06 0.470D-05 0.915D-05-0.223D-05-0.114D-03 0.468D-04
 Coeff:      0.653D-03-0.204D-03-0.370D-02 0.724D-02 0.196D-01-0.874D-01
 Coeff:     -0.555D-01 0.112D+01
 Gap=     0.536 Goal=   None    Shift=    0.000
 RMSDP=4.85D-09 MaxDP=1.31D-07 DE=-2.42D-11 OVMax= 5.01D-07

 SCF Done:  E(RHF) =  -279.504833136     A.U. after   14 cycles
            NFock= 14  Conv=0.49D-08     -V/T= 2.0024
 KE= 2.788463819468D+02 PE=-9.051897067840D+02 EE= 2.246735805760D+02
 Leave Link  502 at Sun Mar  6 18:55:32 2022, MaxMem= 16106127360 cpu:              56.7 elap:               3.7
 (Enter /sw/contrib/gaussian/g16/B01/g16/l801.exe)
 ExpMin= 2.53D-02 ExpMax= 1.53D+04 ExpMxC= 5.22D+02 IAcc=3 IRadAn=         5 AccDes= 0.00D+00
 HarFok:  IExCor=  205 AccDes= 0.00D+00 IRadAn=         5 IDoV=-2 UseB2=F ITyADJ=14
 ICtDFT= 12500011 ScaDFX=  1.000000  1.000000  1.000000  1.000000
 Largest valence mixing into a core orbital is  2.07D-04
 Largest core mixing into a valence orbital is  3.17D-05
 Range of M.O.s used for correlation:     5   207
 NBasis=   207 NAE=    16 NBE=    16 NFC=     4 NFV=     0
 NROrb=    203 NOA=    12 NOB=    12 NVA=   191 NVB=   191

 **** Warning!!: The largest alpha MO coefficient is  0.16871794D+02

 Leave Link  801 at Sun Mar  6 18:55:32 2022, MaxMem= 16106127360 cpu:               2.1 elap:               0.1
 (Enter /sw/contrib/gaussian/g16/B01/g16/l906.exe)
 Frozen-core derivative calculation, NFC=   4 NFV=   0.
 FulOut=F Deriv=T AODrv=T NAtomX=     5
   MMem=           0  MDisk=          12 MDiskD=          12
  W3Min=      811440 MinDsk=     2425030 NBas6D=         245
 NBas2D=       30762    NTT=       30135    LW2=     7400000
    MDV= 16105571644 MDiskM=      328644 NBas2p=       30759
 Disk-based method using ON**2 memory for 12 occupieds at a time.
 Permanent disk used for amplitudes=    11516536 words.
 Estimated scratch disk usage=   321863743 words.
 IMap=   1   2   3   4   5   6   7   8   9  10  11  12  13  14  15  16
 Actual    scratch disk usage=   310892607 words.
 JobTyp=1 Pass  1:  I=   5 to  16 NPSUse= 28 ParTrn=T ParDer=T DoDerP=T.
 (rs|ai) integrals will be sorted in core.
 Spin components of T(2) and E(2):
     alpha-alpha T2 =       0.3496627712D-01 E2=     -0.1245972489D+00
     alpha-beta  T2 =       0.1859510155D+00 E2=     -0.7010001634D+00
     beta-beta   T2 =       0.3496627712D-01 E2=     -0.1245972489D+00
 The integrals were generated   1 times.
 ANorm=    0.1120662112D+01
 E2 =    -0.9501946613D+00 EUMP2 =    -0.28045502779706D+03
 Leave Link  906 at Sun Mar  6 18:57:10 2022, MaxMem= 16106127360 cpu:            2720.7 elap:              97.3
 (Enter /sw/contrib/gaussian/g16/B01/g16/l1101.exe)
 Using compressed Sx but separate Hx and Fx, NAtomX=     5.
 Will process      6 centers per pass.
 Leave Link 1101 at Sun Mar  6 18:57:10 2022, MaxMem= 16106127360 cpu:               5.3 elap:               0.2
 (Enter /sw/contrib/gaussian/g16/B01/g16/l1102.exe)
 Leave Link 1102 at Sun Mar  6 18:57:10 2022, MaxMem= 16106127360 cpu:               0.5 elap:               0.0
 (Enter /sw/contrib/gaussian/g16/B01/g16/l1110.exe)
 Forming Gx(P) for the SCF density, NAtomX=     5.
 Integral derivatives from FoFJK, PRISM(SPDF).
 Do as many integral derivatives as possible in FoFJK.
 G2DrvN: MDV=   16106126844.
 G2DrvN: will do     6 centers at a time, making    1 passes.
 Calling FoFCou, ICntrl=  3107 FMM=F I1Cent=   0 AccDes= 0.00D+00.
 FoFJK:  IHMeth= 1 ICntrl=    3107 DoSepK=F KAlg= 0 I1Cent=           0 FoldK=F
 IRaf=         0 NMat=       1 IRICut=       1 DoRegI=T DoRafI=F ISym2E= 1 IDoP0=0 IntGTp=1.
 FoFCou: FMM=F IPFlag=           0 FMFlag=      100000 FMFlg1=           0
         NFxFlg=           0 DoJE=F BraDBF=F KetDBF=F FulRan=T
         wScrn=  0.000000 ICntrl=      3107 IOpCl=  0 I1Cent=           0 NGrid=           0
         NMat0=    1 NMatS0=      1 NMatT0=    0 NMatD0=    1 NMtDS0=    0 NMtDT0=    0
 Petite list used in FoFCou.
 End of G2Drv F.D. properties file   721 does not exist.
 End of G2Drv F.D. properties file   722 does not exist.
 End of G2Drv F.D. properties file   788 does not exist.
 Leave Link 1110 at Sun Mar  6 18:57:13 2022, MaxMem= 16106127360 cpu:              87.1 elap:               3.2
 (Enter /sw/contrib/gaussian/g16/B01/g16/l1002.exe)
 Minotr:  Closed shell wavefunction.
          IDoAtm=11111
          Frozen-core window.
          Direct CPHF calculation.
          Differentiating once with respect to electric field.
                with respect to dipole field.
          Differentiating once with respect to nuclear coordinates.
          Requested convergence is 1.0D-08 RMS, and 1.0D-07 maximum.
          Secondary convergence is 1.0D-12 RMS, and 1.0D-12 maximum.
          NewPWx=T KeepS1=T KeepF1=T KeepIn=T MapXYZ=F SortEE=F KeepMc=T.
 Keep R1 ints in memory in symmetry-blocked form, NReq=348888983.
 FoFCou: FMM=F IPFlag=           0 FMFlag=           0 FMFlg1=           0
         NFxFlg=           0 DoJE=F BraDBF=F KetDBF=F FulRan=T
         wScrn=  0.000000 ICntrl=       600 IOpCl=  0 I1Cent=           0 NGrid=           0
         NMat0=    1 NMatS0=  21528 NMatT0=    0 NMatD0=    1 NMtDS0=    0 NMtDT0=    0
 Petite list used in FoFCou.
          MDV=   16106127360 using IRadAn=       1.
          Solving linear equations simultaneously, MaxMat=       0.
          There are    18 degrees of freedom in the 1st order CPHF.  IDoFFX=6 NUNeed=    18.
     15 vectors produced by pass  0 Test12= 1.70D-14 5.56D-09 XBig12= 7.95D+00 1.23D+00.
 AX will form    15 AO Fock derivatives at one time.
     15 vectors produced by pass  1 Test12= 1.70D-14 5.56D-09 XBig12= 1.36D+00 2.44D-01.
     15 vectors produced by pass  2 Test12= 1.70D-14 5.56D-09 XBig12= 7.01D-02 5.64D-02.
     15 vectors produced by pass  3 Test12= 1.70D-14 5.56D-09 XBig12= 2.11D-03 1.10D-02.
     15 vectors produced by pass  4 Test12= 1.70D-14 5.56D-09 XBig12= 4.65D-05 1.19D-03.
     15 vectors produced by pass  5 Test12= 1.70D-14 5.56D-09 XBig12= 6.33D-07 1.19D-04.
     15 vectors produced by pass  6 Test12= 1.70D-14 5.56D-09 XBig12= 4.81D-09 1.13D-05.
     14 vectors produced by pass  7 Test12= 1.70D-14 5.56D-09 XBig12= 3.58D-11 8.24D-07.
      3 vectors produced by pass  8 Test12= 1.70D-14 5.56D-09 XBig12= 2.43D-13 6.21D-08.
      1 vectors produced by pass  9 Test12= 1.70D-14 5.56D-09 XBig12= 1.64D-15 6.85D-09.
 InvSVY:  IOpt=1 It=  1 EMax= 7.77D-16
 Solved reduced A of dimension   123 with    15 vectors.
 FullF1:  Do perturbations      1 to      18.
 Saving first derivative matrices.
 End of Minotr F.D. properties file   721 does not exist.
 End of Minotr F.D. properties file   722 does not exist.
 End of Minotr F.D. properties file   788 does not exist.
 Leave Link 1002 at Sun Mar  6 18:57:16 2022, MaxMem= 16106127360 cpu:              79.5 elap:               3.0
 (Enter /sw/contrib/gaussian/g16/B01/g16/l811.exe)
 MDV= 16106127360.
 Form MO integral derivatives with frozen-active canonical formalism.
 MOERI=1 MOERIx=1 NAtoms=     5 NAtomX=     5.
 Discarding MO integrals.
 MO basis two electron integral derivatives will not be stored on disk.
 IAlg= 3 DoFC=T DoPWx=T Debug=F.
 Frozen-core window:  NFC=   4 NFV=   0.
 Reordered first order wavefunction length =     18678272
 In DefCFB: NBatch=  1 ICI= 16 ICA=191 LFMax= 96
            Large arrays: LIAPS=   619940160 LIARS=   288257200 words.
 In StABat: MaxSiz= 55 MinSiz= 25 NAtomB=  5
 DoIAMN: NPSUse= 28.
 Leave Link  811 at Sun Mar  6 18:58:39 2022, MaxMem= 16106127360 cpu:            2301.7 elap:              82.4
 (Enter /sw/contrib/gaussian/g16/B01/g16/l804.exe)
 Frozen-core window:  NFC=   4 NFV=   0.
 Closed-shell transformation, MDV= 16106127360 ITran=4 ISComp=1.
 Semi-Direct transformation.
 ModeAB=           2 MOrb=            16 LenV=   16104919967
 LASXX=     67341636 LTotXX=    67341636 LenRXX=    67341636
 LTotAB=    68301760 MaxLAS=    99807120 LenRXY=    99807120
 NonZer=   134683272 LenScr=   202817536 LnRSAI=           0
 LnScr1=           0 LExtra=           0 Total=    369966292
 MaxDsk=          -1 SrtSym=           F ITran=            4
 DoSDTr:  NPSUse= 28
 JobTyp=0 Pass  1:  I=   1 to  16.
 (rs|ai) integrals will be sorted in core.
 Complete sort for first half transformation.
 First half transformation complete.
 Begin second half transformation for I=  10.
 Begin second half transformation for I=  10.
 Complete sort for second half transformation.
 Second half transformation complete.
 Spin components of T(2) and E(2):
     alpha-alpha T2 =       0.3496627712D-01 E2=     -0.1245972489D+00
     alpha-beta  T2 =       0.1859510155D+00 E2=     -0.7010001634D+00
     beta-beta   T2 =       0.3496627712D-01 E2=     -0.1245972489D+00
 ANorm=    0.1584855558D+01
 E2 =    -0.9501946613D+00 EUMP2 =    -0.28045502779706D+03
 Leave Link  804 at Sun Mar  6 18:58:56 2022, MaxMem= 16106127360 cpu:             476.6 elap:              17.1
 (Enter /sw/contrib/gaussian/g16/B01/g16/l1002.exe)
 Minotr:  Closed shell wavefunction.
          Computing MP2/KS-MP2 derivatives.
          Using Z-Vector for PSCF gradient.
          Skipping F1 and S1 gradient terms here.
          IDoAtm=11111
          Frozen-core window.
          Using MO integrals in the linear equations.
          Forming densities via direct SCF.
          Differentiating once with respect to electric field.
                with respect to dipole field.
          Differentiating once with respect to nuclear coordinates.
          Using symmetry in CPHF.
          Requested convergence is 1.0D-10 RMS, and 1.0D-09 maximum.
          NewPWx=F KeepS1=T KeepF1=T KeepIn=T MapXYZ=F SortEE=F KeepMc=T.
          MDV=   16106127360 using IRadAn=       5.
          Solving linear equations separately, MaxMat=       0.
          There are     1 degrees of freedom in the 1st order CPHF.  IDoFFX=0 NUNeed=     1.
 FoFJK:  IHMeth= 1 ICntrl=       0 DoSepK=F KAlg= 0 I1Cent=           0 FoldK=F
 IRaf=         0 NMat=       1 IRICut=       1 DoRegI=T DoRafI=F ISym2E= 0 IDoP0=0 IntGTp=1.
 FoFCou: FMM=F IPFlag=           0 FMFlag=      100000 FMFlg1=           0
         NFxFlg=           0 DoJE=F BraDBF=F KetDBF=F FulRan=T
         wScrn=  0.000000 ICntrl=         0 IOpCl=  0 I1Cent=           0 NGrid=           0
         NMat0=    1 NMatS0=      1 NMatT0=    0 NMatD0=    1 NMtDS0=    0 NMtDT0=    0
 Symmetry not used in FoFCou.
 LinEq1:  Iter=  0 NonCon=     1 RMS=6.61D-03 Max=1.66D-01 NDo=     1
 LinEq1:  Iter=  1 NonCon=     1 RMS=1.98D-03 Max=3.06D-02 NDo=     1
 LinEq1:  Iter=  2 NonCon=     1 RMS=8.84D-04 Max=1.49D-02 NDo=     1
 LinEq1:  Iter=  3 NonCon=     1 RMS=3.76D-04 Max=7.93D-03 NDo=     1
 LinEq1:  Iter=  4 NonCon=     1 RMS=1.36D-04 Max=1.65D-03 NDo=     1
 LinEq1:  Iter=  5 NonCon=     1 RMS=7.61D-05 Max=1.35D-03 NDo=     1
 LinEq1:  Iter=  6 NonCon=     1 RMS=2.43D-05 Max=2.84D-04 NDo=     1
 LinEq1:  Iter=  7 NonCon=     1 RMS=8.31D-06 Max=1.08D-04 NDo=     1
 LinEq1:  Iter=  8 NonCon=     1 RMS=4.05D-06 Max=6.69D-05 NDo=     1
 LinEq1:  Iter=  9 NonCon=     1 RMS=1.04D-06 Max=1.18D-05 NDo=     1
 LinEq1:  Iter= 10 NonCon=     1 RMS=2.35D-07 Max=2.78D-06 NDo=     1
 LinEq1:  Iter= 11 NonCon=     1 RMS=5.19D-08 Max=8.06D-07 NDo=     1
 LinEq1:  Iter= 12 NonCon=     1 RMS=1.24D-08 Max=1.60D-07 NDo=     1
 LinEq1:  Iter= 13 NonCon=     1 RMS=2.19D-09 Max=2.38D-08 NDo=     1
 LinEq1:  Iter= 14 NonCon=     1 RMS=4.40D-10 Max=5.46D-09 NDo=     1
 LinEq1:  Iter= 15 NonCon=     0 RMS=9.06D-11 Max=7.79D-10 NDo=     1
 Linear equations converged to 1.000D-10 1.000D-09 after    15 iterations.
 End of Minotr F.D. properties file   721 does not exist.
 End of Minotr F.D. properties file   722 does not exist.
 End of Minotr F.D. properties file   788 does not exist.
 Leave Link 1002 at Sun Mar  6 18:58:58 2022, MaxMem= 16106127360 cpu:              66.0 elap:               2.4
 (Enter /sw/contrib/gaussian/g16/B01/g16/l1102.exe)
 Use density number 2.
 Symmetrizing basis deriv contribution to polar:
 IMax=3 JMax=2 DiffMx= 0.00D+00
 Leave Link 1102 at Sun Mar  6 18:58:58 2022, MaxMem= 16106127360 cpu:               0.7 elap:               0.1
 (Enter /sw/contrib/gaussian/g16/B01/g16/l1110.exe)
 Forming Gx(P) for generalized density number  2 NAtomX=     5.
 Integral derivatives from FoFJK, PRISM(SPDF).
 Do as many integral derivatives as possible in FoFJK.
 G2DrvN: MDV=   16106126844.
 G2DrvN: will do     6 centers at a time, making    1 passes.
 Calling FoFCou, ICntrl=  3107 FMM=F I1Cent=   0 AccDes= 0.00D+00.
 FoFJK:  IHMeth= 1 ICntrl=    3107 DoSepK=F KAlg= 0 I1Cent=           0 FoldK=F
 IRaf=         0 NMat=       1 IRICut=       1 DoRegI=T DoRafI=F ISym2E= 1 IDoP0=0 IntGTp=1.
 FoFCou: FMM=F IPFlag=           0 FMFlag=      100000 FMFlg1=           0
         NFxFlg=           0 DoJE=F BraDBF=F KetDBF=F FulRan=T
         wScrn=  0.000000 ICntrl=      3107 IOpCl=  0 I1Cent=           0 NGrid=           0
         NMat0=    1 NMatS0=      1 NMatT0=    0 NMatD0=    1 NMtDS0=    0 NMtDT0=    0
 Petite list used in FoFCou.
 End of G2Drv F.D. properties file   721 does not exist.
 End of G2Drv F.D. properties file   722 does not exist.
 End of G2Drv F.D. properties file   788 does not exist.
 Leave Link 1110 at Sun Mar  6 18:59:01 2022, MaxMem= 16106127360 cpu:              87.2 elap:               3.1
 (Enter /sw/contrib/gaussian/g16/B01/g16/l1112.exe)
 MP22nd: MDV=   16106127360
 This link is doing NAtomX=     5 total of    18 degrees of freedom.
 Using ON3 I/O method in MakUI.
 Frozen-core window:  NFC=   4 NFV=   0.
 Using Ix for Sx.
 Use MO integrals over full window.
 Using OV2 memory method for fx*t*t/D, MaxI=    16 DoOO2=F NP=  28.
 R2 and R3 integrals will be kept in memory, NReq=   915591705.
 FoFCou: FMM=F IPFlag=           0 FMFlag=           0 FMFlg1=           0
         NFxFlg=           0 DoJE=F BraDBF=F KetDBF=F FulRan=T
         wScrn=  0.000000 ICntrl=       600 IOpCl=  0 I1Cent=           0 NGrid=           0
         NMat0=    1 NMatS0=      1 NMatT0=    0 NMatD0=    1 NMtDS0=    0 NMtDT0=    0
 Symmetry not used in FoFCou.
 DD1Dir will call FoFMem   1 times, MxPair=       272
 NAB=   136 NAA=     0 NBB=     0.
 Symmetry is being used.
 FoFJK:  IHMeth= 1 ICntrl=       0 DoSepK=F KAlg= 0 I1Cent=           0 FoldK=F
 IRaf=         0 NMat=      18 IRICut=      45 DoRegI=T DoRafI=T ISym2E= 2 IDoP0=3 IntGTp=3.
 Discarding MO integrals.
 Leave Link 1112 at Sun Mar  6 18:59:38 2022, MaxMem= 16106127360 cpu:            1001.6 elap:              36.2
 (Enter /sw/contrib/gaussian/g16/B01/g16/l601.exe)
 Copying SCF densities to generalized density rwf, IOpCl= 0 IROHF=0.

 **********************************************************************

            Population analysis using the MP2 Density.

 **********************************************************************

 Orbital symmetries:
       Occupied  (A') (A') (A') (A') (A') (A') (A') (A') (A') (A')
                 (A") (A') (A") (A') (A') (A")
       Virtual   (A') (A") (A') (A') (A") (A') (A') (A') (A") (A')
                 (A") (A') (A') (A') (A") (A') (A') (A") (A') (A')
                 (A') (A') (A') (A') (A") (A') (A') (A") (A') (A')
                 (A') (A") (A") (A') (A') (A') (A") (A') (A") (A')
                 (A") (A") (A') (A') (A") (A') (A') (A") (A') (A')
                 (A') (A") (A') (A') (A") (A') (A") (A') (A") (A')
                 (A') (A') (A") (A') (A') (A') (A") (A") (A') (A')
                 (A") (A') (A") (A") (A') (A') (A") (A') (A') (A')
                 (A") (A') (A') (A") (A') (A") (A") (A') (A') (A')
                 (A') (A') (A") (A") (A') (A') (A") (A") (A') (A")
                 (A') (A') (A") (A') (A") (A') (A') (A') (A") (A')
                 (A") (A') (A') (A') (A") (A') (A') (A') (A") (A')
                 (A") (A") (A') (A') (A") (A") (A') (A") (A') (A')
                 (A') (A') (A") (A') (A') (A") (A") (A') (A') (A')
                 (A") (A") (A') (A') (A') (A") (A') (A') (A') (A')
                 (A") (A') (A') (A") (A") (A') (A") (A') (A") (A')
                 (A') (A") (A') (A") (A") (A') (A") (A') (A") (A')
                 (A") (A") (A") (A') (A') (A") (A') (A') (A") (A')
                 (A') (A') (A') (A') (A') (A') (A') (A') (A') (A')
                 (A')
 The electronic state is 1-A'.
 Alpha  occ. eigenvalues --  -20.71968 -20.68691 -20.67040 -15.82630  -1.64096
 Alpha  occ. eigenvalues --   -1.49773  -1.29659  -0.95919  -0.83072  -0.75739
 Alpha  occ. eigenvalues --   -0.73698  -0.64053  -0.61615  -0.61350  -0.50389
 Alpha  occ. eigenvalues --   -0.50116
 Alpha virt. eigenvalues --    0.03480   0.06037   0.09505   0.10006   0.11989
 Alpha virt. eigenvalues --    0.12207   0.14767   0.15070   0.17759   0.18066
 Alpha virt. eigenvalues --    0.18991   0.21087   0.21648   0.23233   0.24632
 Alpha virt. eigenvalues --    0.26934   0.31126   0.31622   0.33748   0.34321
 Alpha virt. eigenvalues --    0.34535   0.39295   0.44837   0.48718   0.50469
 Alpha virt. eigenvalues --    0.51820   0.54586   0.56113   0.59903   0.61962
 Alpha virt. eigenvalues --    0.63833   0.68891   0.71721   0.72481   0.74091
 Alpha virt. eigenvalues --    0.76270   0.76503   0.79715   0.80620   0.84109
 Alpha virt. eigenvalues --    0.84283   0.85198   0.88452   0.90570   0.92786
 Alpha virt. eigenvalues --    0.94729   0.95525   1.01741   1.03017   1.05907
 Alpha virt. eigenvalues --    1.06597   1.09261   1.14224   1.15494   1.16969
 Alpha virt. eigenvalues --    1.22118   1.22710   1.24480   1.34955   1.36313
 Alpha virt. eigenvalues --    1.37117   1.46951   1.48647   1.50548   1.54102
 Alpha virt. eigenvalues --    1.59490   1.59684   1.60525   1.62695   1.69462
 Alpha virt. eigenvalues --    1.73766   1.80083   1.82969   1.88800   1.88859
 Alpha virt. eigenvalues --    1.92781   1.97568   1.98906   2.05143   2.12214
 Alpha virt. eigenvalues --    2.12925   2.16260   2.18686   2.24368   2.25013
 Alpha virt. eigenvalues --    2.29083   2.34733   2.36454   2.38571   2.40281
 Alpha virt. eigenvalues --    2.42261   2.46738   2.47529   2.52876   2.53688
 Alpha virt. eigenvalues --    2.54558   2.55740   2.61408   2.62344   2.66641
 Alpha virt. eigenvalues --    2.66818   2.74410   2.80353   2.81480   2.83491
 Alpha virt. eigenvalues --    2.91258   2.98352   3.04027   3.04541   3.11169
 Alpha virt. eigenvalues --    3.11368   3.16558   3.19866   3.30071   3.32545
 Alpha virt. eigenvalues --    3.36210   3.45691   3.67860   3.86682   3.92228
 Alpha virt. eigenvalues --    4.17812   4.21663   4.22171   4.26333   4.36710
 Alpha virt. eigenvalues --    4.47848   4.51584   4.55142   4.59397   4.69658
 Alpha virt. eigenvalues --    4.80568   4.89620   4.91233   4.93759   5.00000
 Alpha virt. eigenvalues --    5.00605   5.10615   5.12878   5.18009   5.24971
 Alpha virt. eigenvalues --    5.25840   5.31498   5.33154   5.35350   5.55006
 Alpha virt. eigenvalues --    5.64453   5.70053   5.85193   5.99054   6.29140
 Alpha virt. eigenvalues --    6.30295   6.34650   6.38746   6.60411   6.65612
 Alpha virt. eigenvalues --    6.67445   6.69059   6.72908   6.79794   6.79810
 Alpha virt. eigenvalues --    6.85598   6.96535   7.00468   7.04885   7.06865
 Alpha virt. eigenvalues --    7.12910   7.16252   7.16476   7.18814   7.23038
 Alpha virt. eigenvalues --    7.24144   7.26784   7.34235   7.38042   7.41186
 Alpha virt. eigenvalues --    7.44181   7.45095   7.55660   7.64762   7.65392
 Alpha virt. eigenvalues --    7.77692   7.85886   7.94202   8.04689   8.26923
 Alpha virt. eigenvalues --    8.48634   8.63089  13.53676  14.72835  15.08199
 Alpha virt. eigenvalues --   15.73487
          Condensed to atoms (all electrons):
               1          2          3          4          5
     1  H    0.575711   0.125348   0.024230   0.000305  -0.007064
     2  O    0.125348   8.360588  -0.201610   0.001292  -0.008773
     3  O    0.024230  -0.201610   8.350159  -0.170295  -0.034392
     4  N    0.000305   0.001292  -0.170295   7.125989  -0.115332
     5  O   -0.007064  -0.008773  -0.034392  -0.115332   8.360137
 Mulliken charges:
               1
     1  H    0.281470
     2  O   -0.276845
     3  O    0.031908
     4  N    0.158042
     5  O   -0.194575
 Sum of Mulliken charges =  -0.00000
 Mulliken charges with hydrogens summed into heavy atoms:
               1
     2  O    0.004625
     3  O    0.031908
     4  N    0.158042
     5  O   -0.194575
 APT charges:
               1
     1  H    0.270929
     2  O   -0.307724
     3  O   -0.305145
     4  N    0.640777
     5  O   -0.298836
 Sum of APT charges =  -0.00000
 APT charges with hydrogens summed into heavy atoms:
               1
     2  O   -0.036795
     3  O   -0.305145
     4  N    0.640777
     5  O   -0.298836
 Electronic spatial extent (au):  <R**2>=            208.7708
 Charge=             -0.0000 electrons
 Dipole moment (field-independent basis, Debye):
    X=              0.0134    Y=             -1.1218    Z=              0.0000  Tot=              1.1219
 Quadrupole moment (field-independent basis, Debye-Ang):
   XX=            -23.3802   YY=            -22.9038   ZZ=            -21.9627
   XY=             -2.0228   XZ=              0.0000   YZ=              0.0000
 Traceless Quadrupole moment (field-independent basis, Debye-Ang):
   XX=             -0.6313   YY=             -0.1549   ZZ=              0.7862
   XY=             -2.0228   XZ=              0.0000   YZ=              0.0000
 Octapole moment (field-independent basis, Debye-Ang**2):
  XXX=              2.4792  YYY=              0.1409  ZZZ=              0.0000  XYY=              2.4134
  XXY=             -2.8646  XXZ=              0.0000  XZZ=             -0.6392  YZZ=             -0.7333
  YYZ=             -0.0000  XYZ=             -0.0000
 Hexadecapole moment (field-independent basis, Debye-Ang**3):
 XXXX=           -129.5176 YYYY=            -94.1464 ZZZZ=            -18.0960 XXXY=            -21.4813
 XXXZ=              0.0000 YYYX=            -19.7283 YYYZ=              0.0000 ZZZX=              0.0000
 ZZZY=              0.0000 XXYY=            -35.9039 XXZZ=            -24.7845 YYZZ=            -18.5000
 XXYZ=              0.0000 YYXZ=              0.0000 ZZXY=             -5.8648
 N-N= 1.221649111254D+02 E-N=-9.058879068722D+02  KE= 2.801702781531D+02
 Symmetry A'   KE= 2.663267677841D+02
 Symmetry A"   KE= 1.384351036900D+01
  Exact polarizability:  31.313   4.025  29.854  -0.000  -0.000  17.683
 Approx polarizability:  25.036   0.351  27.752  -0.000  -0.000  15.548
 No NMR shielding tensors so no spin-rotation constants.
 Leave Link  601 at Sun Mar  6 18:59:38 2022, MaxMem= 16106127360 cpu:               4.7 elap:               0.2
 (Enter /sw/contrib/gaussian/g16/B01/g16/l701.exe)
 ... and contract with generalized density number  2.
 Compute integral second derivatives.
 Leave Link  701 at Sun Mar  6 18:59:38 2022, MaxMem= 16106127360 cpu:               5.9 elap:               0.2
 (Enter /sw/contrib/gaussian/g16/B01/g16/l702.exe)
 L702 exits ... SP integral derivatives will be done elsewhere.
 Leave Link  702 at Sun Mar  6 18:59:38 2022, MaxMem= 16106127360 cpu:               0.7 elap:               0.0
 (Enter /sw/contrib/gaussian/g16/B01/g16/l703.exe)
 Integral derivatives from FoFJK, PRISM(SPDF).
 Compute integral second derivatives, UseDBF=F ICtDFT=           0.
 Calling FoFJK, ICntrl=  10100127 FMM=F ISym2X=1 I1Cent= 0 IOpClX= 0 NMat=1 NMatS=1 NMatT=0.
 FoFJK:  IHMeth= 1 ICntrl=10100127 DoSepK=F KAlg= 0 I1Cent=           0 FoldK=F
 IRaf=         0 NMat=       1 IRICut=       1 DoRegI=T DoRafI=F ISym2E= 1 IDoP0=0 IntGTp=1.
 FoFCou: FMM=F IPFlag=           0 FMFlag=      100000 FMFlg1=         800
         NFxFlg=           0 DoJE=F BraDBF=F KetDBF=F FulRan=T
         wScrn=  0.000000 ICntrl=  10100127 IOpCl=  0 I1Cent=           0 NGrid=           0
         NMat0=    1 NMatS0=      1 NMatT0=    0 NMatD0=    1 NMtDS0=    0 NMtDT0=    0
 Petite list used in FoFCou.
 Leave Link  703 at Sun Mar  6 18:59:55 2022, MaxMem= 16106127360 cpu:             447.7 elap:              16.0
 (Enter /sw/contrib/gaussian/g16/B01/g16/l716.exe)
 Dipole        = 5.26593644D-03-4.41357825D-01 1.64134287D-33
 Polarizability= 3.13130772D+01 4.02541667D+00 2.98535345D+01
                -2.94761420D-32-6.09654722D-32 1.76825236D+01
 Full mass-weighted force constant matrix:
 Low frequencies ---   -0.0009   -0.0006    0.0009   13.4645   52.3940   91.0684
 Low frequencies ---  352.8681  393.3750  521.4744
 Diagonal vibrational polarizability:
        7.2523960      10.0011502      16.2810367
 Harmonic frequencies (cm**-1), IR intensities (KM/Mole), Raman scattering
 activities (A**4/AMU), depolarization ratios for plane and unpolarized
 incident light, reduced masses (AMU), force constants (mDyne/A),
 and normal coordinates:
                      1                      2                      3
                     A"                     A'                     A"
 Frequencies --    352.8636               393.3088               521.4138
 Red. masses --      1.5388                 7.0901                 2.9765
 Frc consts  --      0.1129                 0.6462                 0.4768
 IR Inten    --     63.8207                 7.4646                25.1284
  Atom  AN      X      Y      Z        X      Y      Z        X      Y      Z
     1   1     0.00   0.00   0.98    -0.73  -0.24   0.00     0.00   0.00   0.93
     2   8     0.00   0.00  -0.11    -0.33  -0.31  -0.00     0.00   0.00   0.06
     3   8     0.00  -0.00   0.11    -0.06   0.08   0.00     0.00  -0.00  -0.19
     4   7    -0.00  -0.00  -0.11     0.06   0.09   0.00    -0.00  -0.00   0.27
     5   8    -0.00  -0.00   0.03     0.39   0.16  -0.00    -0.00  -0.00  -0.17
                      4                      5                      6
                     A'                     A'                     A'
 Frequencies --    704.2264               794.6305               948.8909
 Red. masses --     13.2430                13.4844                 9.0216
 Frc consts  --      3.8696                 5.0166                 4.7859
 IR Inten    --    206.2899                36.1420                13.7138
  Atom  AN      X      Y      Z        X      Y      Z        X      Y      Z
     1   1    -0.37   0.02  -0.00     0.34  -0.18   0.00    -0.66   0.02   0.00
     2   8    -0.05  -0.06   0.00     0.57  -0.26  -0.00     0.11  -0.13   0.00
     3   8     0.41   0.56  -0.00    -0.44   0.10  -0.00    -0.28   0.40  -0.00
     4   7    -0.40  -0.45  -0.00    -0.40  -0.07   0.00     0.41   0.04   0.00
     5   8     0.01  -0.11   0.00     0.20   0.23  -0.00    -0.15  -0.30  -0.00
                      7                      8                      9
                     A'                     A'                     A'
 Frequencies --   1412.9062              1565.7011              3496.7137
 Red. masses --      1.2618                 7.8210                 1.0641
 Frc consts  --      1.4842                11.2962                 7.6659
 IR Inten    --     81.2312               147.9701                41.4787
  Atom  AN      X      Y      Z        X      Y      Z        X      Y      Z
     1   1     0.97  -0.22  -0.00    -0.69   0.16   0.00     0.17   0.98   0.00
     2   8    -0.07  -0.05  -0.00     0.02   0.02   0.00    -0.01  -0.06  -0.00
     3   8    -0.02   0.06   0.00    -0.05  -0.06  -0.00     0.00  -0.00   0.00
     4   7     0.06  -0.04  -0.00     0.27  -0.45   0.00    -0.00   0.00   0.00
     5   8    -0.02   0.04   0.00    -0.17   0.42  -0.00     0.00  -0.00  -0.00

 -------------------
 - Thermochemistry -
 -------------------
 Temperature   298.150 Kelvin.  Pressure   1.00000 Atm.
 Atom     1 has atomic number  1 and mass   1.00783
 Atom     2 has atomic number  8 and mass  15.99491
 Atom     3 has atomic number  8 and mass  15.99491
 Atom     4 has atomic number  7 and mass  14.00307
 Atom     5 has atomic number  8 and mass  15.99491
 Molecular mass:    62.99564 amu.
 Principal axes and moments of inertia in atomic units:
                           1         2         3
     Eigenvalues --    85.82971 224.30197 310.13168
           X            0.80793  -0.58927   0.00000
           Y            0.58927   0.80793   0.00000
           Z            0.00000  -0.00000   1.00000
 This molecule is an asymmetric top.
 Rotational symmetry number  1.
 Rotational temperatures (Kelvin)      1.00914     0.38615     0.27928
 Rotational constants (GHZ):          21.02700     8.04603     5.81927
 Zero-point vibrational energy      60953.7 (Joules/Mol)
                                   14.56827 (Kcal/Mol)
 Warning -- explicit consideration of   3 degrees of freedom as
           vibrations may cause significant error
 Vibrational temperatures:    507.69   565.88   750.20  1013.22  1143.30
          (Kelvin)           1365.24  2032.86  2252.69  5030.99
 
 Zero-point correction=                           0.023216 (Hartree/Particle)
 Thermal correction to Energy=                    0.027178
 Thermal correction to Enthalpy=                  0.028122
 Thermal correction to Gibbs Free Energy=        -0.002784
 Sum of electronic and zero-point Energies=           -280.431812
 Sum of electronic and thermal Energies=              -280.427850
 Sum of electronic and thermal Enthalpies=            -280.426906
 Sum of electronic and thermal Free Energies=         -280.457812
 
                     E (Thermal)             CV                S
                      KCal/Mol        Cal/Mol-Kelvin    Cal/Mol-Kelvin
 Total                   17.054             12.296             65.047
 Electronic               0.000              0.000              0.000
 Translational            0.889              2.981             38.341
 Rotational               0.889              2.981             23.305
 Vibrational             15.277              6.335              3.401
 Vibration     1          0.729              1.569              1.153
 Vibration     2          0.761              1.484              0.988
 Vibration     3          0.876              1.203              0.607
                       Q            Log10(Q)             Ln(Q)
 Total Bot       0.190774D+02          1.280519          2.948505
 Total V=0       0.910202D+12         11.959138         27.536933
 Vib (Bot)       0.350950D-10        -10.454754        -24.072962
 Vib (Bot)    1  0.521888D+00         -0.282422         -0.650301
 Vib (Bot)    2  0.455379D+00         -0.341627         -0.786625
 Vib (Bot)    3  0.309168D+00         -0.509806         -1.173872
 Vib (V=0)       0.167442D+01          0.223864          0.515466
 Vib (V=0)    1  0.122275D+01          0.087338          0.201102
 Vib (V=0)    2  0.117629D+01          0.070515          0.162367
 Vib (V=0)    3  0.108786D+01          0.036575          0.084217
 Electronic      0.100000D+01          0.000000          0.000000
 Translational   0.196526D+08          7.293420         16.793719
 Rotational      0.276601D+05          4.441854         10.227747
 
                                                                title
                                                             IR Spectrum
 
     3                                                                      1    1                                                   
     4                                                                      5    4                9     7  7      5   3 3            
     9                                                                      6    1                4     9  0      2   9 5            
     7                                                                      6    3                9     5  4      1   3 3            
 
     X                                                                      X    X                X     X  X      X   X X            
     X                                                                      X    X                      X  X      X     X            
     X                                                                      X    X                      X  X            X            
     X                                                                      X    X                      X  X            X            
                                                                            X    X                         X            X            
                                                                            X    X                         X            X            
                                                                            X    X                         X                         
                                                                            X    X                         X                         
                                                                            X                              X                         
                                                                            X                              X                         
                                                                            X                              X                         
                                                                            X                              X                         
                                                                            X                              X                         
                                                                            X                              X                         
                                                                                                           X                         
                                                                                                           X                         
                                                                                                           X                         
                                                                                                           X                         
                                                                                                           X                         
                                                                                                           X                         
 
 ***** Axes restored to original set *****
 -------------------------------------------------------------------
 Center     Atomic                   Forces (Hartrees/Bohr)
 Number     Number              X              Y              Z
 -------------------------------------------------------------------
      1        1           0.001227991   -0.000000000    0.000843394
      2        8           0.008509621   -0.000000000    0.001602430
      3        8          -0.008081660    0.000000000   -0.002532094
      4        7          -0.003056333    0.000000000    0.000217924
      5        8           0.001400381   -0.000000000   -0.000131654
 -------------------------------------------------------------------
 Cartesian Forces:  Max     0.008509621 RMS     0.003268970
 -----------------------------------------------------------------------------------------------
                       Internal Coordinate Forces (Hartree/Bohr or radian)
  Cent   Atom   N1       Length/X         N2         Alpha/Y        N3         Beta/Z          J
 -----------------------------------------------------------------------------------------------
      1  H 
      2  O        1  -0.000843(     1)
      3  O        2  -0.010022(     2)      1  -0.002287(     5)
      4  N        3  -0.000992(     3)      2  -0.000626(     6)      1   0.000000(     8)     0
      5  O        4  -0.000628(     4)      3   0.002842(     7)      2  -0.000000(     9)     0
 -----------------------------------------------------------------------------------------------
 Internal  Forces:  Max     0.010021734 RMS     0.003593532
 Force constants in Cartesian coordinates: 
                1             2             3             4             5 
      1  0.694345D-01
      2  0.000000D+00  0.606860D-02
      3  0.219557D-01  0.000000D+00  0.439104D+00
      4 -0.518916D-01  0.000000D+00 -0.516459D-02  0.251929D+00
      5  0.000000D+00 -0.212957D-02  0.000000D+00  0.000000D+00  0.144414D-01
      6  0.314224D-01  0.000000D+00 -0.423858D+00 -0.163822D-01  0.000000D+00
      7 -0.229500D-01  0.000000D+00 -0.136508D-01 -0.143029D+00  0.000000D+00
      8  0.000000D+00 -0.451979D-02  0.000000D+00  0.000000D+00 -0.209575D-01
      9 -0.423403D-01  0.000000D+00 -0.183051D-01  0.137230D-01  0.000000D+00
     10 -0.449536D-02  0.000000D+00  0.567149D-02 -0.811918D-01  0.000000D+00
     11  0.000000D+00  0.773129D-02  0.000000D+00  0.000000D+00  0.187713D-01
     12 -0.180551D-01  0.000000D+00  0.111880D-01  0.121206D-01  0.000000D+00
     13  0.990253D-02  0.000000D+00 -0.881181D-02  0.241835D-01  0.000000D+00
     14  0.000000D+00 -0.715054D-02  0.000000D+00  0.000000D+00 -0.101256D-01
     15  0.701728D-02  0.000000D+00 -0.812863D-02 -0.429672D-02  0.000000D+00
                6             7             8             9            10 
      6  0.522691D+00
      7 -0.831682D-01  0.271021D+00
      8  0.000000D+00  0.000000D+00  0.429028D-01
      9 -0.951356D-01  0.754654D-01  0.000000D+00  0.312741D+00
     10  0.393810D-01 -0.142592D+00  0.000000D+00 -0.357647D-01  0.547700D+00
     11  0.000000D+00  0.000000D+00 -0.469320D-01  0.000000D+00  0.000000D+00
     12 -0.889739D-02  0.116770D-01  0.000000D+00 -0.248060D-01  0.245291D+00
     13  0.287470D-01  0.375497D-01  0.000000D+00 -0.110833D-01 -0.319421D+00
     14  0.000000D+00  0.000000D+00  0.295065D-01  0.000000D+00  0.000000D+00
     15  0.520069D-02  0.967653D-02  0.000000D+00 -0.174494D+00 -0.254578D+00
               11            12            13            14            15 
     11  0.579326D-01
     12  0.000000D+00  0.447416D+00
     13  0.000000D+00 -0.251033D+00  0.247785D+00
     14 -0.375032D-01  0.000000D+00  0.000000D+00  0.252729D-01
     15  0.000000D+00 -0.424901D+00  0.242181D+00  0.000000D+00  0.602323D+00
 Force constants in internal coordinates: 
                1             2             3             4             5 
      1  0.439104D+00
      2  0.193164D-01  0.225602D+00
      3  0.428882D-02  0.188016D-01  0.203323D+00
      4 -0.115571D-01  0.214546D-01  0.148221D+00  0.720632D+00
      5  0.421114D-01  0.504497D-01 -0.226820D-01  0.208362D-01  0.239185D+00
      6  0.956964D-02  0.200291D-01  0.891100D-01  0.945060D-02 -0.117848D-01
      7  0.719557D-02 -0.687277D-01  0.121914D+00  0.116278D+00 -0.197617D-01
      8  0.000000D+00  0.000000D+00  0.000000D+00  0.000000D+00  0.000000D+00
      9  0.000000D+00  0.000000D+00  0.000000D+00  0.000000D+00  0.000000D+00
                6             7             8             9 
      6  0.504924D+00
      7  0.610966D-01  0.658622D+00
      8  0.000000D+00  0.000000D+00  0.192232D-01
      9  0.000000D+00  0.000000D+00  0.269217D-01  0.104716D+00
 Leave Link  716 at Sun Mar  6 18:59:55 2022, MaxMem= 16106127360 cpu:               0.8 elap:               0.1
 (Enter /sw/contrib/gaussian/g16/B01/g16/l103.exe)

 GradGradGradGradGradGradGradGradGradGradGradGradGradGradGradGradGradGrad
 Berny optimization.
 Search for a local minimum.
 Step number   1 out of a maximum of    2
 All quantities printed in internal units (Hartrees-Bohrs-Radians)
 Second derivative matrix not updated -- analytic derivatives used.
 The second derivative matrix:
                          r1        r2        r3        r4        a1
           r1           0.43910
           r2           0.01932   0.22560
           r3           0.00429   0.01880   0.20332
           r4          -0.01156   0.02145   0.14822   0.72063
           a1           0.04211   0.05045  -0.02268   0.02084   0.23918
           a2           0.00957   0.02003   0.08911   0.00945  -0.01178
           a3           0.00720  -0.06873   0.12191   0.11628  -0.01976
           d1          -0.00000  -0.00000  -0.00000   0.00000   0.00000
           d2          -0.00000   0.00000   0.00000   0.00000   0.00000
                          a2        a3        d1        d2
           a2           0.50492
           a3           0.06110   0.65862
           d1          -0.00000   0.00000   0.01922
           d2           0.00000  -0.00000   0.02692   0.10472
 ITU=  0
     Eigenvalues ---    0.01145   0.11249   0.11874   0.18840   0.25698
     Eigenvalues ---    0.44892   0.49814   0.60134   0.87888
 Angle between quadratic step and forces=  21.55 degrees.
 Linear search not attempted -- first point.
 Variable       Old X    -DE/DX   Delta X   Delta X   Delta X     New X
                                 (Linear)    (Quad)   (Total)
    r1        1.86209  -0.00084   0.00000   0.00010   0.00010   1.86219
    r2        2.73810  -0.01002   0.00000  -0.04443  -0.04443   2.69366
    r3        2.60992  -0.00099   0.00000  -0.00163  -0.00163   2.60829
    r4        2.25782  -0.00063   0.00000   0.00083   0.00083   2.25865
    a1        1.75642  -0.00229   0.00000  -0.00041  -0.00041   1.75601
    a2        1.97463  -0.00063   0.00000   0.00081   0.00081   1.97544
    a3        1.99550   0.00284   0.00000  -0.00026  -0.00026   1.99525
    d1        0.00000   0.00000   0.00000  -0.00000  -0.00000  -0.00000
    d2        0.00000  -0.00000   0.00000   0.00000   0.00000   0.00000
         Item               Value     Threshold  Converged?
 Maximum Force            0.010022     0.000450     NO 
 RMS     Force            0.003594     0.000300     NO 
 Maximum Displacement     0.044431     0.001800     NO 
 RMS     Displacement     0.014826     0.001200     NO 
 Predicted change in Energy=-2.230011D-04
                       ----------------------------
                       ! Non-Optimized Parameters !
                       ! (Angstroms and Degrees)  !
 ----------------------                            ----------------------
 !      Name          Value   Derivative information (Atomic Units)     !
 ------------------------------------------------------------------------
 !       r1          0.9854   -DE/DX =   -0.0008                        !
 !       r2          1.4254   -DE/DX =   -0.01                          !
 !       r3          1.3802   -DE/DX =   -0.001                         !
 !       r4          1.1952   -DE/DX =   -0.0006                        !
 !       a1        100.6118   -DE/DX =   -0.0023                        !
 !       a2        113.1844   -DE/DX =   -0.0006                        !
 !       a3        114.3192   -DE/DX =    0.0028                        !
 !       d1          0.0      -DE/DX =    0.0                           !
 !       d2          0.0      -DE/DX =    0.0                           !
 ------------------------------------------------------------------------
 GradGradGradGradGradGradGradGradGradGradGradGradGradGradGradGradGradGrad

 Leave Link  103 at Sun Mar  6 18:59:55 2022, MaxMem= 16106127360 cpu:               0.6 elap:               0.0
 (Enter /sw/contrib/gaussian/g16/B01/g16/l9999.exe)

 ----------------------------------------------------------------------

 Electric dipole moment (input orientation):
 (Debye = 10**-18 statcoulomb cm , SI units = C m)
                  (au)            (Debye)         (10**-30 SI)
   Tot        0.441389D+00      0.112190D+01      0.374225D+01
   x         -0.100397D+00     -0.255185D+00     -0.851204D+00
   y          0.000000D+00      0.000000D+00      0.000000D+00
   z         -0.429820D+00     -0.109249D+01     -0.364416D+01

 Dipole polarizability, Alpha (input orientation).
 (esu units = cm**3 , SI units = C**2 m**2 J**-1)
 Alpha(0;0):
               (au)            (10**-24 esu)      (10**-40 SI)
   iso        0.262830D+02      0.389475D+01      0.433349D+01
   aniso      0.147187D+02      0.218108D+01      0.242678D+01
   xx         0.295485D+02      0.437863D+01      0.487189D+01
   yx         0.000000D+00      0.000000D+00      0.000000D+00
   yy         0.176825D+02      0.262028D+01      0.291545D+01
   zx        -0.395799D+01     -0.586514D+00     -0.652584D+00
   zy         0.000000D+00      0.000000D+00      0.000000D+00
   zz         0.316181D+02      0.468532D+01      0.521313D+01

 ----------------------------------------------------------------------

 Dipole orientation:
     1          0.00000000         -0.00000000         -0.00000000
     8         -0.42354696         -0.00000000         -1.81328280
     8          2.08202906         -0.00000000         -2.91748252
     7          3.98833520          0.00000000         -1.13488492
     8          3.26275464          0.00000000          1.00317434

 Electric dipole moment (dipole orientation):
 (Debye = 10**-18 statcoulomb cm , SI units = C m)
                  (au)            (Debye)         (10**-30 SI)
   Tot        0.441389D+00      0.112190D+01      0.374225D+01
   x          0.000000D+00      0.000000D+00      0.000000D+00
   y          0.000000D+00      0.000000D+00      0.000000D+00
   z          0.441389D+00      0.112190D+01      0.374225D+01

 Dipole polarizability, Alpha (dipole orientation).
 (esu units = cm**3 , SI units = C**2 m**2 J**-1)
 Alpha(0;0):
               (au)            (10**-24 esu)      (10**-40 SI)
   iso        0.262830D+02      0.389475D+01      0.433349D+01
   aniso      0.147187D+02      0.218108D+01      0.242678D+01
   xx         0.314089D+02      0.465432D+01      0.517863D+01
   yx         0.000000D+00      0.000000D+00      0.000000D+00
   yy         0.176825D+02      0.262028D+01      0.291545D+01
   zx         0.400686D+01      0.593755D+00      0.660642D+00
   zy         0.000000D+00      0.000000D+00      0.000000D+00
   zz         0.297577D+02      0.440964D+01      0.490638D+01

 ----------------------------------------------------------------------
 1\1\GINC-N2095\Freq\RMP2-FC\Aug-CC-pVTZ\H1N1O3\CGAVINH\06-Mar-2022\1\\
 #p freq mp2/aug-cc-pvtz density=current\\title\\0,1\H\O,1,r1\O,2,r2,1,
 a1\N,3,r3,2,a2,1,d1,0\O,4,r4,3,a3,2,d2,0\\r1=0.98537664\r2=1.44893786\
 r3=1.38110764\r4=1.19478846\a1=100.6355057\a2=113.13777052\a3=114.3339
 2022\d1=0.\d2=0.\\Version=ES64L-G16RevB.01\State=1-A'\HF=-279.5048331\
 MP2=-280.4550278\RMSD=4.852e-09\RMSF=3.269e-03\ZeroPoint=0.023216\Ther
 mal=0.0271779\Dipole=-0.1003973,0.,-0.4298195\DipoleDeriv=0.3166865,0.
 ,0.0370643,0.,0.2990561,0.,-0.0174205,0.,0.1970441,-0.5329726,0.,0.260
 8879,0.,-0.2576186,0.,-0.1061591,0.,-0.1325816,0.005509,0.,0.3574716,0
 .,-0.0125261,0.,0.4306236,0.,-0.9084185,0.1991228,0.,-0.1445541,0.,0.0
 155691,0.,-0.6568489,0.,1.7076385,0.0116543,0.,-0.5108697,0.,-0.044480
 5,0.,0.3498049,0.,-0.8636826\Polar=29.548481,0.,17.6825236,-3.9579898,
 0.,31.6181307\Quadrupole=0.1810204,0.5844905,-0.7655109,0.,1.4384651,0
 .\PG=CS [SG(H1N1O3)]\NImag=0\\0.06943450,0.,0.00606860,0.02195568,0.,0
 .43910408,-0.05189163,0.,-0.00516459,0.25192869,0.,-0.00212957,0.,0.,0
 .01444141,0.03142245,0.,-0.42385838,-0.01638224,0.,0.52269072,-0.02295
 004,0.,-0.01365077,-0.14302876,0.,-0.08316819,0.27102096,0.,-0.0045197
 9,0.,0.,-0.02095753,0.,0.,0.04290276,-0.04234034,0.,-0.01830508,0.0137
 2296,0.,-0.09513564,0.07546542,0.,0.31274089,-0.00449536,0.,0.00567149
 ,-0.08119178,0.,0.03938099,-0.14259186,0.,-0.03576471,0.54769974,0.,0.
 00773129,0.,0.,0.01877129,0.,0.,-0.04693198,0.,0.,0.05793264,-0.018055
 08,0.,0.01118802,0.01212059,0.,-0.00889739,0.01167701,0.,-0.02480596,0
 .24529071,0.,0.44741639,0.00990253,0.,-0.00881181,0.02418349,0.,0.0287
 4700,0.03754970,0.,-0.01108334,-0.31942074,0.,-0.25103323,0.24778501,0
 .,-0.00715054,0.,0.,-0.01012560,0.,0.,0.02950654,0.,0.,-0.03750325,0.,
 0.,0.02527286,0.00701728,0.,-0.00812863,-0.00429672,0.,0.00520069,0.00
 967653,0.,-0.17449421,-0.25457848,0.,-0.42490106,0.24218138,0.,0.60232
 322\\-0.00122799,0.,-0.00084339,-0.00850962,0.,-0.00160243,0.00808166,
 0.,0.00253209,0.00305633,0.,-0.00021792,-0.00140038,0.,0.00013165\\\@


 Once you get people laughing, they're
 listening and you can tell them almost anything.
                                 -- Herb Gardner
 Job cpu time:       0 days  2 hours  2 minutes 49.5 seconds.
 Elapsed time:       0 days  0 hours  4 minutes 26.5 seconds.
 File lengths (MBytes):  RWF=   7239 Int=      0 D2E=      0 Chk=      8 Scr=      1
 Normal termination of Gaussian 16 at Sun Mar  6 18:59:56 2022.
