title                                                                   
Freq      RMP2-FC                                                     Aug-CC-pVTZ         
Number of atoms                            I                5
Info1-9                                    I   N=           9
          33          24           0           0           0         100
           6           2           1
Full Title                                 C   N=           1
title       
Route                                      C   N=           4
#p freq mp2/aug-cc-pvtz density=current         
Charge                                     I                0
Multiplicity                               I                1
Number of electrons                        I               32
Number of alpha electrons                  I               16
Number of beta electrons                   I               16
Number of basis functions                  I              207
Number of independent functions            I              207
Number of point charges in /Mol/           I                0
Number of translation vectors              I                0
Atomic numbers                             I   N=           5
           1           8           8           7           8
Nuclear charges                            R   N=           5
  1.00000000E+00  8.00000000E+00  8.00000000E+00  7.00000000E+00  8.00000000E+00
Current cartesian coordinates              R   N=          15
  2.16331843E+00 -1.10001088E+00 -1.47911420E-31  2.51055469E+00  7.29418957E-01
 -4.93038066E-32  1.85608279E-16  1.71242169E+00  4.31408308E-32 -1.88418713E+00
 -9.35395942E-02  4.93038066E-32 -1.13230575E+00 -2.22249214E+00 -1.23259516E-32
Number of symbols in /Mol/                 I                0
Force Field                                I                0
Atom Types                                 C   N=           5
                                                            
Int Atom Types                             I   N=           5
           0           0           0           0           0
MM charges                                 R   N=           5
  0.00000000E+00  0.00000000E+00  0.00000000E+00  0.00000000E+00  0.00000000E+00
Integer atomic weights                     I   N=           5
           1          16          16          14          16
Real atomic weights                        R   N=           5
  1.00782504E+00  1.59949146E+01  1.59949146E+01  1.40030740E+01  1.59949146E+01
Atom fragment info                         I   N=           5
           0           0           0           0           0
Atom residue num                           I   N=           5
           0           0           0           0           0
Nuclear spins                              I   N=           5
           1           0           0           2           0
Nuclear ZEff                               R   N=           5
 -1.00000000E+00 -5.60000000E+00 -5.60000000E+00 -4.55000000E+00 -5.60000000E+00
Nuclear ZNuc                               R   N=           5
  1.00000000E+00  8.00000000E+00  8.00000000E+00  7.00000000E+00  8.00000000E+00
Nuclear QMom                               R   N=           5
  0.00000000E+00  0.00000000E+00  0.00000000E+00  2.04400000E+00  0.00000000E+00
Nuclear GFac                               R   N=           5
  2.79284600E+00  0.00000000E+00  0.00000000E+00  4.03761000E-01  0.00000000E+00
MicOpt                                     I   N=           5
          -1          -1          -1          -1          -1
Number of residues                         I                0
Number of secondary structures             I                0
SymInf integers                            I   N=          26
           1           2           1           1           1           1
           1          -1           0           0           0           0
           0           0           0           0           0           0
           0           0           0           0           0           0
           0           0
RotTr to input orientation                 R   N=          12
 -9.82459436E-01  1.21721476E-16  1.86476424E-01  1.86476424E-01 -2.31034328E-17
  9.82459436E-01  1.23894658E-16  1.00000000E+00  0.00000000E+00  2.33049870E+00
  0.00000000E+00  6.77308181E-01
Number of contracted shells                I               65
Number of primitive shells                 I              119
Pure/Cartesian d shells                    I                0
Pure/Cartesian f shells                    I                0
Highest angular momentum                   I                3
Largest degree of contraction              I                7
Shell types                                I   N=          65
           0           0           0           0           1           1
           1          -2          -2           0           0           0
           0           0           1           1           1           1
          -2          -2          -2          -3          -3           0
           0           0           0           0           1           1
           1           1          -2          -2          -2          -3
          -3           0           0           0           0           0
           1           1           1           1          -2          -2
          -2          -3          -3           0           0           0
           0           0           1           1           1           1
          -2          -2          -2          -3          -3
Number of primitives per shell             I   N=          65
           3           1           1           1           1           1
           1           1           1           7           6           1
           1           1           3           1           1           1
           1           1           1           1           1           7
           6           1           1           1           3           1
           1           1           1           1           1           1
           1           7           6           1           1           1
           3           1           1           1           1           1
           1           1           1           7           6           1
           1           1           3           1           1           1
           1           1           1           1           1
Shell to atom map                          I   N=          65
           1           1           1           1           1           1
           1           1           1           2           2           2
           2           2           2           2           2           2
           2           2           2           2           2           3
           3           3           3           3           3           3
           3           3           3           3           3           3
           3           4           4           4           4           4
           4           4           4           4           4           4
           4           4           4           5           5           5
           5           5           5           5           5           5
           5           5           5           5           5
Primitive exponents                        R   N=         119
  3.38700000E+01  5.09500000E+00  1.15900000E+00  3.25800000E-01  1.02700000E-01
  2.52600000E-02  1.40700000E+00  3.88000000E-01  1.02000000E-01  1.05700000E+00
  2.47000000E-01  1.53300000E+04  2.29900000E+03  5.22400000E+02  1.47300000E+02
  4.75500000E+01  1.67600000E+01  6.20700000E+00  5.22400000E+02  1.47300000E+02
  4.75500000E+01  1.67600000E+01  6.20700000E+00  6.88200000E-01  1.75200000E+00
  2.38400000E-01  7.37600000E-02  3.44600000E+01  7.74900000E+00  2.28000000E+00
  7.15600000E-01  2.14000000E-01  5.97400000E-02  2.31400000E+00  6.45000000E-01
  2.14000000E-01  1.42800000E+00  5.00000000E-01  1.53300000E+04  2.29900000E+03
  5.22400000E+02  1.47300000E+02  4.75500000E+01  1.67600000E+01  6.20700000E+00
  5.22400000E+02  1.47300000E+02  4.75500000E+01  1.67600000E+01  6.20700000E+00
  6.88200000E-01  1.75200000E+00  2.38400000E-01  7.37600000E-02  3.44600000E+01
  7.74900000E+00  2.28000000E+00  7.15600000E-01  2.14000000E-01  5.97400000E-02
  2.31400000E+00  6.45000000E-01  2.14000000E-01  1.42800000E+00  5.00000000E-01
  1.14200000E+04  1.71200000E+03  3.89300000E+02  1.10000000E+02  3.55700000E+01
  1.25400000E+01  4.64400000E+00  3.89300000E+02  1.10000000E+02  3.55700000E+01
  1.25400000E+01  4.64400000E+00  5.11800000E-01  1.29300000E+00  1.78700000E-01
  5.76000000E-02  2.66300000E+01  5.94800000E+00  1.74200000E+00  5.55000000E-01
  1.72500000E-01  4.91000000E-02  1.65400000E+00  4.69000000E-01  1.51000000E-01
  1.09300000E+00  3.64000000E-01  1.53300000E+04  2.29900000E+03  5.22400000E+02
  1.47300000E+02  4.75500000E+01  1.67600000E+01  6.20700000E+00  5.22400000E+02
  1.47300000E+02  4.75500000E+01  1.67600000E+01  6.20700000E+00  6.88200000E-01
  1.75200000E+00  2.38400000E-01  7.37600000E-02  3.44600000E+01  7.74900000E+00
  2.28000000E+00  7.15600000E-01  2.14000000E-01  5.97400000E-02  2.31400000E+00
  6.45000000E-01  2.14000000E-01  1.42800000E+00  5.00000000E-01
Contraction coefficients                   R   N=         119
  2.54948632E-02  1.90362766E-01  8.52162022E-01  1.00000000E+00  1.00000000E+00
  1.00000000E+00  1.00000000E+00  1.00000000E+00  1.00000000E+00  1.00000000E+00
  1.00000000E+00  5.19808943E-04  4.02025621E-03  2.07128267E-02  8.10105536E-02
  2.35962985E-01  4.42653446E-01  3.57064423E-01 -4.42115008E-05 -1.22591041E-03
 -1.05517725E-02 -6.74452633E-02 -1.71198607E-01  1.07329856E+00  1.00000000E+00
  1.00000000E+00  1.00000000E+00  4.11634896E-02  2.57762836E-01  8.02419274E-01
  1.00000000E+00  1.00000000E+00  1.00000000E+00  1.00000000E+00  1.00000000E+00
  1.00000000E+00  1.00000000E+00  1.00000000E+00  5.19808943E-04  4.02025621E-03
  2.07128267E-02  8.10105536E-02  2.35962985E-01  4.42653446E-01  3.57064423E-01
 -4.42115008E-05 -1.22591041E-03 -1.05517725E-02 -6.74452633E-02 -1.71198607E-01
  1.07329856E+00  1.00000000E+00  1.00000000E+00  1.00000000E+00  4.11634896E-02
  2.57762836E-01  8.02419274E-01  1.00000000E+00  1.00000000E+00  1.00000000E+00
  1.00000000E+00  1.00000000E+00  1.00000000E+00  1.00000000E+00  1.00000000E+00
  5.34563860E-04  4.13435660E-03  2.12335358E-02  8.25006224E-02  2.38138871E-01
  4.42551547E-01  3.53757422E-01 -4.89867350E-05 -1.19527323E-03 -1.03490714E-02
 -6.48680190E-02 -1.71552477E-01  1.07289568E+00  1.00000000E+00  1.00000000E+00
  1.00000000E+00  3.98072123E-02  2.49002660E-01  8.10479727E-01  1.00000000E+00
  1.00000000E+00  1.00000000E+00  1.00000000E+00  1.00000000E+00  1.00000000E+00
  1.00000000E+00  1.00000000E+00  5.19808943E-04  4.02025621E-03  2.07128267E-02
  8.10105536E-02  2.35962985E-01  4.42653446E-01  3.57064423E-01 -4.42115008E-05
 -1.22591041E-03 -1.05517725E-02 -6.74452633E-02 -1.71198607E-01  1.07329856E+00
  1.00000000E+00  1.00000000E+00  1.00000000E+00  4.11634896E-02  2.57762836E-01
  8.02419274E-01  1.00000000E+00  1.00000000E+00  1.00000000E+00  1.00000000E+00
  1.00000000E+00  1.00000000E+00  1.00000000E+00  1.00000000E+00
Coordinates of each shell                  R   N=         195
  2.16331843E+00 -1.10001088E+00 -9.75210331E-32  2.16331843E+00 -1.10001088E+00
 -9.75210331E-32  2.16331843E+00 -1.10001088E+00 -9.75210331E-32  2.16331843E+00
 -1.10001088E+00 -9.75210331E-32  2.16331843E+00 -1.10001088E+00 -9.75210331E-32
  2.16331843E+00 -1.10001088E+00 -9.75210331E-32  2.16331843E+00 -1.10001088E+00
 -9.75210331E-32  2.16331843E+00 -1.10001088E+00 -9.75210331E-32  2.16331843E+00
 -1.10001088E+00 -9.75210331E-32  2.51055469E+00  7.29418957E-01 -7.13814747E-32
  2.51055469E+00  7.29418957E-01 -7.13814747E-32  2.51055469E+00  7.29418957E-01
 -7.13814747E-32  2.51055469E+00  7.29418957E-01 -7.13814747E-32  2.51055469E+00
  7.29418957E-01 -7.13814747E-32  2.51055469E+00  7.29418957E-01 -7.13814747E-32
  2.51055469E+00  7.29418957E-01 -7.13814747E-32  2.51055469E+00  7.29418957E-01
 -7.13814747E-32  2.51055469E+00  7.29418957E-01 -7.13814747E-32  2.51055469E+00
  7.29418957E-01 -7.13814747E-32  2.51055469E+00  7.29418957E-01 -7.13814747E-32
  2.51055469E+00  7.29418957E-01 -7.13814747E-32  2.51055469E+00  7.29418957E-01
 -7.13814747E-32  2.51055469E+00  7.29418957E-01 -7.13814747E-32  1.57560007E-17
  1.71242169E+00  3.56764905E-32  1.57560007E-17  1.71242169E+00  3.56764905E-32
  1.57560007E-17  1.71242169E+00  3.56764905E-32  1.57560007E-17  1.71242169E+00
  3.56764905E-32  1.57560007E-17  1.71242169E+00  3.56764905E-32  1.57560007E-17
  1.71242169E+00  3.56764905E-32  1.57560007E-17  1.71242169E+00  3.56764905E-32
  1.57560007E-17  1.71242169E+00  3.56764905E-32  1.57560007E-17  1.71242169E+00
  3.56764905E-32  1.57560007E-17  1.71242169E+00  3.56764905E-32  1.57560007E-17
  1.71242169E+00  3.56764905E-32  1.57560007E-17  1.71242169E+00  3.56764905E-32
  1.57560007E-17  1.71242169E+00  3.56764905E-32  1.57560007E-17  1.71242169E+00
  3.56764905E-32 -1.88418713E+00 -9.35395942E-02  6.30286460E-32 -1.88418713E+00
 -9.35395942E-02  6.30286460E-32 -1.88418713E+00 -9.35395942E-02  6.30286460E-32
 -1.88418713E+00 -9.35395942E-02  6.30286460E-32 -1.88418713E+00 -9.35395942E-02
  6.30286460E-32 -1.88418713E+00 -9.35395942E-02  6.30286460E-32 -1.88418713E+00
 -9.35395942E-02  6.30286460E-32 -1.88418713E+00 -9.35395942E-02  6.30286460E-32
 -1.88418713E+00 -9.35395942E-02  6.30286460E-32 -1.88418713E+00 -9.35395942E-02
  6.30286460E-32 -1.88418713E+00 -9.35395942E-02  6.30286460E-32 -1.88418713E+00
 -9.35395942E-02  6.30286460E-32 -1.88418713E+00 -9.35395942E-02  6.30286460E-32
 -1.88418713E+00 -9.35395942E-02  6.30286460E-32 -1.13230575E+00 -2.22249214E+00
 -7.25495189E-33 -1.13230575E+00 -2.22249214E+00 -7.25495189E-33 -1.13230575E+00
 -2.22249214E+00 -7.25495189E-33 -1.13230575E+00 -2.22249214E+00 -7.25495189E-33
 -1.13230575E+00 -2.22249214E+00 -7.25495189E-33 -1.13230575E+00 -2.22249214E+00
 -7.25495189E-33 -1.13230575E+00 -2.22249214E+00 -7.25495189E-33 -1.13230575E+00
 -2.22249214E+00 -7.25495189E-33 -1.13230575E+00 -2.22249214E+00 -7.25495189E-33
 -1.13230575E+00 -2.22249214E+00 -7.25495189E-33 -1.13230575E+00 -2.22249214E+00
 -7.25495189E-33 -1.13230575E+00 -2.22249214E+00 -7.25495189E-33 -1.13230575E+00
 -2.22249214E+00 -7.25495189E-33 -1.13230575E+00 -2.22249214E+00 -7.25495189E-33
Num ILSW                                   I              100
ILSW                                       I   N=         100
           0           0           0           0           2           0
           0           0           0           0           0          -1
           5           0           0           0           2           0
           0           0           0           0           1           0
           1           0           0           0           0           0
           0           0      100000           0          -1           0
           0           0           0           0           0           0
           0           0           0           1           1           0
           0 -2000000000           1           0           0           0
           0           0           4          52           0           0
           0           0           0           0           0           0
           0           0           0           5           4           1
           0           0           0           0           0           0
           0           0           0           0           0           0
           0           0           0           0           0           0
           0           0           0           0           0           0
           0           0           0           0
Num RLSW                                   I               52
RLSW                                       R   N=          52
  1.00000000E+00  1.00000000E+00  1.00000000E+00  1.00000000E+00  1.00000000E+00
  0.00000000E+00  0.00000000E+00  1.00000000E+00  0.00000000E+00  0.00000000E+00
  0.00000000E+00  0.00000000E+00  1.00000000E+00  0.00000000E+00  0.00000000E+00
  0.00000000E+00  0.00000000E+00  1.00000000E+00  0.00000000E+00  0.00000000E+00
  0.00000000E+00  0.00000000E+00  1.00000000E+00  0.00000000E+00  0.00000000E+00
  0.00000000E+00  0.00000000E+00  1.00000000E+00  0.00000000E+00  0.00000000E+00
  0.00000000E+00  0.00000000E+00  1.00000000E+00  0.00000000E+00  0.00000000E+00
  0.00000000E+00  0.00000000E+00  0.00000000E+00  1.00000000E+00  1.00000000E+00
  0.00000000E+00  1.00000000E+00  0.00000000E+00  0.00000000E+00  0.00000000E+00
  0.00000000E+00  0.00000000E+00  0.00000000E+00  0.00000000E+00  0.00000000E+00
  0.00000000E+00  0.00000000E+00
MxBond                                     I                2
NBond                                      I   N=           5
           1           2           2           2           1
IBond                                      I   N=          10
           2           0           1           3           2           4
           3           5           4           0
RBond                                      R   N=          10
  1.00000000E+00  0.00000000E+00  1.00000000E+00  1.00000000E+00  1.00000000E+00
  1.00000000E+00  1.00000000E+00  2.00000000E+00  2.00000000E+00  0.00000000E+00
Virial Ratio                               R      2.002266751582789E+00
SCF Energy                                 R     -2.795065313064093E+02
MP2 Energy                                 R     -2.804550308345957E+02
Total Energy                               R     -2.804550308345957E+02
Post-SCF wavefunction norm                 R      1.583792731723376E+00
RMS Force                                  R      2.711577022797899E-03
RMS Density                                R      3.914908705915721E-09
NImag                                      I                0
Job Status                                 I                1
Nuclear derivative order                   I                2
External E-field                           R   N=          35
  0.00000000E+00  0.00000000E+00  0.00000000E+00  0.00000000E+00  0.00000000E+00
  0.00000000E+00  0.00000000E+00  0.00000000E+00  0.00000000E+00  0.00000000E+00
  0.00000000E+00  0.00000000E+00  0.00000000E+00  0.00000000E+00  0.00000000E+00
  0.00000000E+00  0.00000000E+00  0.00000000E+00  0.00000000E+00  0.00000000E+00
  0.00000000E+00  0.00000000E+00  0.00000000E+00  0.00000000E+00  0.00000000E+00
  0.00000000E+00  0.00000000E+00  0.00000000E+00  0.00000000E+00  0.00000000E+00
  0.00000000E+00  0.00000000E+00  0.00000000E+00  0.00000000E+00  0.00000000E+00
IOpCl                                      I                0
IROHF                                      I                0
Alpha Orbital Energies                     R   N=         207
 -2.07177279E+01 -2.06862816E+01 -2.06704977E+01 -1.58260840E+01 -1.64199381E+00
 -1.50535167E+00 -1.29386037E+00 -9.60071618E-01 -8.31527129E-01 -7.58061938E-01
 -7.38672790E-01 -6.40041053E-01 -6.18966385E-01 -6.16804333E-01 -5.03599434E-01
 -4.96961584E-01  3.47239786E-02  6.09783301E-02  9.51839296E-02  1.00996911E-01
  1.19737756E-01  1.22403248E-01  1.48424132E-01  1.51210521E-01  1.77674303E-01
  1.80766802E-01  1.89994995E-01  2.11059307E-01  2.16665117E-01  2.40227973E-01
  2.46562198E-01  2.68969817E-01  3.10444072E-01  3.14413152E-01  3.37838212E-01
  3.45297275E-01  3.48378180E-01  3.90883535E-01  4.46099309E-01  4.87564744E-01
  5.04657762E-01  5.19730171E-01  5.44817958E-01  5.61597428E-01  6.00745168E-01
  6.20696308E-01  6.38080304E-01  6.88400716E-01  7.17688047E-01  7.25213776E-01
  7.41083055E-01  7.60544494E-01  7.66007579E-01  7.95397123E-01  8.04034471E-01
  8.42287231E-01  8.43575678E-01  8.51411377E-01  8.84891322E-01  9.06511568E-01
  9.28236251E-01  9.47318749E-01  9.53592874E-01  1.01878176E+00  1.02845715E+00
  1.05162338E+00  1.06412915E+00  1.09077382E+00  1.13894977E+00  1.15581267E+00
  1.16918457E+00  1.22132014E+00  1.22461898E+00  1.24748880E+00  1.34454227E+00
  1.36809759E+00  1.37805473E+00  1.46638080E+00  1.48489458E+00  1.50693013E+00
  1.53866805E+00  1.59107384E+00  1.59797570E+00  1.60535414E+00  1.62381564E+00
  1.69602779E+00  1.74037670E+00  1.80295001E+00  1.83155638E+00  1.88875599E+00
  1.88943944E+00  1.92512265E+00  1.97800159E+00  1.98681515E+00  2.05046663E+00
  2.12659283E+00  2.12845589E+00  2.16288396E+00  2.18244108E+00  2.24065364E+00
  2.25626196E+00  2.29622874E+00  2.34339265E+00  2.35881419E+00  2.38907761E+00
  2.39810474E+00  2.43059684E+00  2.46695148E+00  2.47321089E+00  2.52465875E+00
  2.53150719E+00  2.54892495E+00  2.55765847E+00  2.61169932E+00  2.62576160E+00
  2.66702471E+00  2.66938013E+00  2.75375076E+00  2.80852310E+00  2.80878903E+00
  2.84415869E+00  2.91237826E+00  2.98490391E+00  3.04294635E+00  3.04473516E+00
  3.11598912E+00  3.12187499E+00  3.15585472E+00  3.21298920E+00  3.30703232E+00
  3.33233946E+00  3.37097961E+00  3.46989810E+00  3.68536550E+00  3.86800064E+00
  3.91342811E+00  4.17464276E+00  4.21309553E+00  4.21987614E+00  4.25528004E+00
  4.36288042E+00  4.49100119E+00  4.50484689E+00  4.55674225E+00  4.59527890E+00
  4.69988519E+00  4.81583146E+00  4.90331535E+00  4.91269334E+00  4.93578532E+00
  5.00011827E+00  5.00734398E+00  5.10971834E+00  5.12762720E+00  5.18195975E+00
  5.24713995E+00  5.25814551E+00  5.31490332E+00  5.31739901E+00  5.34889992E+00
  5.55457794E+00  5.64589405E+00  5.70194228E+00  5.88597683E+00  6.00107914E+00
  6.26872844E+00  6.29719842E+00  6.36053602E+00  6.38047711E+00  6.59551736E+00
  6.64383863E+00  6.65604112E+00  6.68427510E+00  6.72985491E+00  6.80011371E+00
  6.80507208E+00  6.84782506E+00  6.96686740E+00  7.02005285E+00  7.06599840E+00
  7.08175630E+00  7.13166382E+00  7.15886303E+00  7.17439904E+00  7.20205857E+00
  7.24480115E+00  7.24892484E+00  7.26911835E+00  7.34274101E+00  7.38526791E+00
  7.42202503E+00  7.44354657E+00  7.46336602E+00  7.55324429E+00  7.65441558E+00
  7.66597748E+00  7.79647652E+00  7.87878451E+00  7.94296974E+00  8.04054954E+00
  8.29745780E+00  8.49232427E+00  8.65674965E+00  1.35979248E+01  1.47978608E+01
  1.50708141E+01  1.57032877E+01
Alpha MO coefficients                      R   N=       42849
  6.72297154E-05 -8.62005661E-05 -1.11955409E-03  1.70427080E-05 -5.32591757E-05
  4.34923111E-05  0.00000000E+00 -7.98890309E-05 -3.14209623E-04  0.00000000E+00
  3.61808483E-05 -3.43253442E-04  0.00000000E+00  4.48040647E-05  0.00000000E+00
  0.00000000E+00 -2.74322552E-05  1.05258287E-05  2.20308277E-04  0.00000000E+00
  0.00000000E+00 -3.79104846E-05 -1.97229541E-04  3.33337198E-03 -9.62371842E-05
 -9.13102421E-05  3.63722811E-03  2.51134189E-03  1.06261020E-04 -5.13979429E-05
  0.00000000E+00 -7.55153415E-04  2.70369109E-04  0.00000000E+00 -2.07866589E-03
  9.94253784E-04  0.00000000E+00 -5.52387966E-04  5.02970084E-05  0.00000000E+00
  2.05060082E-05  0.00000000E+00  0.00000000E+00 -1.11895867E-05  4.33533570E-05
 -4.49356538E-04  0.00000000E+00  0.00000000E+00  4.66588887E-04 -6.42062745E-04
 -3.72254275E-04  0.00000000E+00  0.00000000E+00  5.94691554E-04 -6.90729293E-04
  0.00000000E+00  7.65363678E-05 -5.14267568E-05  0.00000000E+00  0.00000000E+00
 -3.37861985E-05  1.05471293E-04  0.00000000E+00  2.05930414E-04 -4.28857020E-05
  0.00000000E+00  0.00000000E+00 -2.01174097E-04  2.89825535E-04  9.76899500E-01
 -9.16280900E-03  4.34185793E-02  4.54596367E-04 -2.16676964E-03  4.73658597E-04
 -2.13790787E-03  0.00000000E+00 -3.39361272E-04  2.23178964E-03  0.00000000E+00
 -2.40454951E-03 -4.37923024E-04  0.00000000E+00 -2.62563286E-04  7.95019212E-05
  0.00000000E+00  4.37873414E-06  0.00000000E+00  0.00000000E+00 -1.99578768E-06
  4.04391325E-05  8.35522937E-04  0.00000000E+00  0.00000000E+00 -5.04836696E-04
 -1.94394742E-04 -1.38070931E-04  0.00000000E+00  0.00000000E+00 -5.01081903E-04
  3.62463072E-04  0.00000000E+00 -6.39187300E-06 -7.78811771E-05  0.00000000E+00
  0.00000000E+00 -1.02655639E-05  4.81792506E-05  0.00000000E+00  9.74082754E-05
 -1.60488693E-06  0.00000000E+00  0.00000000E+00 -3.59607741E-04  3.78752072E-04
  1.05364774E-04  4.64355400E-04 -3.23060947E-04 -8.64469434E-04  2.56387226E-04
 -4.59632382E-05 -1.00297630E-04  0.00000000E+00  7.19041181E-04  1.12316647E-03
  0.00000000E+00 -7.59546702E-04 -7.39533751E-04  0.00000000E+00  1.78863097E-04
  1.98235260E-04  0.00000000E+00 -5.37594993E-05  0.00000000E+00  0.00000000E+00
  1.95704307E-05  9.33484992E-05 -4.10623023E-04  0.00000000E+00  0.00000000E+00
  7.67788020E-05  1.09036768E-03  3.26082494E-05  0.00000000E+00  0.00000000E+00
 -2.97126189E-04  1.50084699E-05  0.00000000E+00 -7.95312044E-05 -1.14634539E-04
  0.00000000E+00  0.00000000E+00 -9.28429315E-05  1.06612824E-04  0.00000000E+00
 -1.18820509E-04  5.59863668E-05  0.00000000E+00  0.00000000E+00  3.53439679E-05
  5.38442512E-04 -7.36422337E-04  4.86954844E-05 -7.23074143E-05  1.78715870E-04
 -1.12890416E-04 -2.86348452E-05 -4.25773332E-05  0.00000000E+00  1.67116547E-04
  2.62793273E-04  0.00000000E+00  5.39808344E-04  3.36471216E-04  0.00000000E+00
 -2.05699100E-04 -4.97331238E-05  0.00000000E+00 -1.33618292E-05  0.00000000E+00
  0.00000000E+00  4.10382627E-06  1.45748661E-05 -2.62705673E-06  0.00000000E+00
  0.00000000E+00 -1.73138135E-04  1.28441289E-05 -3.09635181E-05  0.00000000E+00
  0.00000000E+00 -1.70987708E-04 -3.56049705E-05  0.00000000E+00 -5.32407456E-06
 -9.02520037E-06  0.00000000E+00  0.00000000E+00 -2.26326469E-05  8.85973327E-06
  0.00000000E+00  3.87677604E-05  5.94639587E-05  0.00000000E+00  0.00000000E+00
  1.61446163E-04 -1.03522315E-04  4.03592379E-05  6.93716818E-05 -1.33990618E-04
 -2.78702797E-05  6.21665237E-06  7.21780814E-07  0.00000000E+00  2.59511997E-04
  8.14472804E-05  0.00000000E+00  1.43406945E-04  3.47943978E-05  0.00000000E+00
  1.80364070E-05  0.00000000E+00  0.00000000E+00 -1.84131588E-05  1.12492806E-05
  3.19049840E-05  0.00000000E+00  0.00000000E+00 -1.11832709E-04  5.03305199E-05
 -2.71137655E-04  7.50769219E-06 -1.49054747E-05 -5.43288155E-04  1.61932336E-04
  5.50362996E-06  1.45263259E-05  0.00000000E+00  1.26783224E-05 -4.09676135E-05
  0.00000000E+00  1.56330899E-04  1.19785145E-04  0.00000000E+00 -5.38685476E-05
  4.38984802E-05  0.00000000E+00  4.84502261E-07  0.00000000E+00  0.00000000E+00
 -7.35014474E-06 -1.36192454E-05  1.36462032E-05  0.00000000E+00  0.00000000E+00
  3.37470094E-05  1.12478459E-04  5.27803708E-05  0.00000000E+00  0.00000000E+00
 -1.25292585E-05 -6.42516426E-05  0.00000000E+00  6.87597739E-06  1.15696709E-05
  0.00000000E+00  0.00000000E+00  7.26529526E-08 -2.07349481E-05  0.00000000E+00
 -9.98936081E-06 -2.98020333E-05  0.00000000E+00  0.00000000E+00  5.63841513E-06
 -2.72562697E-05  7.65012645E-04  2.20125113E-05 -1.79156440E-05  3.00434277E-04
 -3.70782775E-04  1.61714644E-05  2.71032315E-05  0.00000000E+00 -6.39954356E-05
 -1.52255378E-04  0.00000000E+00  1.44133531E-04 -1.83040535E-04  0.00000000E+00
 -1.54112366E-04  1.38759694E-04  0.00000000E+00 -3.90983883E-06  0.00000000E+00
  0.00000000E+00 -2.99484808E-05 -9.29787495E-06 -5.23713988E-05  0.00000000E+00
  0.00000000E+00  8.49047592E-05  1.19662884E-04 -6.70100234E-05  0.00000000E+00
  0.00000000E+00  6.24729054E-05  2.93423817E-05  0.00000000E+00  2.65322492E-06
  3.20911509E-06  0.00000000E+00  0.00000000E+00 -7.34060694E-06 -1.49301256E-06
  0.00000000E+00  4.51819186E-06 -2.46756165E-05  0.00000000E+00  0.00000000E+00
  9.15320231E-05 -1.59593519E-04  2.37901890E-04  1.36116435E-03 -1.48459848E-04
 -6.73525799E-04  8.85095999E-04  6.24809905E-05 -7.12453505E-05  0.00000000E+00
  5.61853439E-04 -2.08878928E-03  0.00000000E+00  1.24791239E-04  4.61099130E-04
  0.00000000E+00  1.79066055E-04 -3.07129920E-04  0.00000000E+00 -1.28129254E-04
  0.00000000E+00  0.00000000E+00 -2.05821005E-04 -1.56727470E-04 -4.60408626E-04
  0.00000000E+00  0.00000000E+00 -6.12807790E-04 -9.09464442E-04 -4.06716125E-05
  0.00000000E+00  0.00000000E+00  6.51543612E-05  1.07628140E-04  0.00000000E+00
  8.54961734E-06  3.66910695E-05  0.00000000E+00  0.00000000E+00 -2.38459144E-05
 -3.55742801E-06  0.00000000E+00 -1.32708378E-04  1.61401356E-04  0.00000000E+00
  0.00000000E+00 -3.13539508E-04 -2.16596889E-05  9.76648070E-01 -9.88672698E-03
  4.35724361E-02  3.66158885E-03 -8.87771208E-04 -4.46090568E-04  2.13287158E-03
  0.00000000E+00  5.02953633E-04 -2.50672119E-03  0.00000000E+00 -5.31982234E-05
  7.97798518E-04  0.00000000E+00  1.04563697E-04 -6.56357235E-05  0.00000000E+00
 -1.94502302E-04  0.00000000E+00  0.00000000E+00 -7.52665973E-05 -4.31216305E-05
  4.09992507E-04  0.00000000E+00  0.00000000E+00  8.62058524E-04  4.76275354E-04
 -2.09013771E-04  0.00000000E+00  0.00000000E+00 -1.30716022E-04 -3.93589247E-05
  0.00000000E+00 -3.64907878E-06  7.04192085E-05  0.00000000E+00  0.00000000E+00
 -3.07261295E-05  1.09365303E-05  0.00000000E+00 -9.02634326E-05  9.27176829E-05
  0.00000000E+00  0.00000000E+00 -1.58394188E-04  2.06886298E-04  3.83651727E-04
  2.00317439E-03  1.19785928E-03 -2.08868145E-05  4.34147715E-05  2.72608873E-04
  0.00000000E+00  3.97032330E-04  1.05476329E-03  0.00000000E+00 -6.32690835E-05
  2.42001694E-04  0.00000000E+00 -2.36596968E-05  0.00000000E+00  0.00000000E+00
  2.95885158E-05 -2.43552091E-05 -2.00379122E-04  0.00000000E+00  0.00000000E+00
 -3.64740801E-04  3.70478736E-04  9.76839131E-01 -9.18333675E-03  4.34562700E-02
  1.67983868E-04 -1.92051178E-03 -2.01878675E-03 -8.99503988E-04  0.00000000E+00
  2.05606505E-03  8.37076765E-04  0.00000000E+00 -4.29701519E-04  6.70974079E-04
  0.00000000E+00  2.24736613E-04 -2.88257935E-04  0.00000000E+00  3.28568817E-05
  0.00000000E+00  0.00000000E+00 -7.75866922E-05  5.73358362E-05  7.67036764E-04
  0.00000000E+00  0.00000000E+00 -2.18161301E-04  3.40671107E-04 -2.29408863E-04
  0.00000000E+00  0.00000000E+00  3.51302061E-04  4.26347456E-06  0.00000000E+00
 -8.00772558E-05 -3.74158338E-07  0.00000000E+00  0.00000000E+00  1.90939347E-05