title                                                                   
Freq      RMP2-FC                                                     Aug-CC-pVTZ         
Number of atoms                            I                5
Info1-9                                    I   N=           9
          33          24           0           0           0         100
           6           2           1
Full Title                                 C   N=           1
title       
Route                                      C   N=           4
#p freq mp2/aug-cc-pvtz density=current         
Charge                                     I                0
Multiplicity                               I                1
Number of electrons                        I               32
Number of alpha electrons                  I               16
Number of beta electrons                   I               16
Number of basis functions                  I              207
Number of independent functions            I              207
Number of point charges in /Mol/           I                0
Number of translation vectors              I                0
Atomic numbers                             I   N=           5
           1           8           8           7           8
Nuclear charges                            R   N=           5
  1.00000000E+00  8.00000000E+00  8.00000000E+00  7.00000000E+00  8.00000000E+00
Current cartesian coordinates              R   N=          15
  2.05898947E+00 -1.14573908E+00  0.00000000E+00  2.47291533E+00  6.69764133E-01
  0.00000000E+00 -1.40832502E-16  1.74394705E+00  0.00000000E+00 -1.86755060E+00
 -7.92128542E-02  0.00000000E+00 -1.09618224E+00 -2.20118255E+00  0.00000000E+00
Number of symbols in /Mol/                 I                0
Force Field                                I                0
Atom Types                                 C   N=           5
                                                            
Int Atom Types                             I   N=           5
           0           0           0           0           0
MM charges                                 R   N=           5
  0.00000000E+00  0.00000000E+00  0.00000000E+00  0.00000000E+00  0.00000000E+00
Integer atomic weights                     I   N=           5
           1          16          16          14          16
Real atomic weights                        R   N=           5
  1.00782504E+00  1.59949146E+01  1.59949146E+01  1.40030740E+01  1.59949146E+01
Atom fragment info                         I   N=           5
           0           0           0           0           0
Atom residue num                           I   N=           5
           0           0           0           0           0
Nuclear spins                              I   N=           5
           1           0           0           2           0
Nuclear ZEff                               R   N=           5
 -1.00000000E+00 -5.60000000E+00 -5.60000000E+00 -4.55000000E+00 -5.60000000E+00
Nuclear ZNuc                               R   N=           5
  1.00000000E+00  8.00000000E+00  8.00000000E+00  7.00000000E+00  8.00000000E+00
Nuclear QMom                               R   N=           5
  0.00000000E+00  0.00000000E+00  0.00000000E+00  2.04400000E+00  0.00000000E+00
Nuclear GFac                               R   N=           5
  2.79284600E+00  0.00000000E+00  0.00000000E+00  4.03761000E-01  0.00000000E+00
MicOpt                                     I   N=           5
          -1          -1          -1          -1          -1
Number of residues                         I                0
Number of secondary structures             I                0
SymInf integers                            I   N=          26
           1           2           1           1           1           1
           1          -1           0           0           0           0
           0           0           0           0           0           0
           0           0           0           0           0           0
           0           0
RotTr to input orientation                 R   N=          12
 -9.74980416E-01  0.00000000E+00  2.22290775E-01  2.22290775E-01  0.00000000E+00
  9.74980416E-01  0.00000000E+00  1.00000000E+00  0.00000000E+00  2.26216163E+00
  0.00000000E+00  6.59378802E-01
Number of contracted shells                I               65
Number of primitive shells                 I              119
Pure/Cartesian d shells                    I                0
Pure/Cartesian f shells                    I                0
Highest angular momentum                   I                3
Largest degree of contraction              I                7
Shell types                                I   N=          65
           0           0           0           0           1           1
           1          -2          -2           0           0           0
           0           0           1           1           1           1
          -2          -2          -2          -3          -3           0
           0           0           0           0           1           1
           1           1          -2          -2          -2          -3
          -3           0           0           0           0           0
           1           1           1           1          -2          -2
          -2          -3          -3           0           0           0
           0           0           1           1           1           1
          -2          -2          -2          -3          -3
Number of primitives per shell             I   N=          65
           3           1           1           1           1           1
           1           1           1           7           6           1
           1           1           3           1           1           1
           1           1           1           1           1           7
           6           1           1           1           3           1
           1           1           1           1           1           1
           1           7           6           1           1           1
           3           1           1           1           1           1
           1           1           1           7           6           1
           1           1           3           1           1           1
           1           1           1           1           1
Shell to atom map                          I   N=          65
           1           1           1           1           1           1
           1           1           1           2           2           2
           2           2           2           2           2           2
           2           2           2           2           2           3
           3           3           3           3           3           3
           3           3           3           3           3           3
           3           4           4           4           4           4
           4           4           4           4           4           4
           4           4           4           5           5           5
           5           5           5           5           5           5
           5           5           5           5           5
Primitive exponents                        R   N=         119
  3.38700000E+01  5.09500000E+00  1.15900000E+00  3.25800000E-01  1.02700000E-01
  2.52600000E-02  1.40700000E+00  3.88000000E-01  1.02000000E-01  1.05700000E+00
  2.47000000E-01  1.53300000E+04  2.29900000E+03  5.22400000E+02  1.47300000E+02
  4.75500000E+01  1.67600000E+01  6.20700000E+00  5.22400000E+02  1.47300000E+02
  4.75500000E+01  1.67600000E+01  6.20700000E+00  6.88200000E-01  1.75200000E+00
  2.38400000E-01  7.37600000E-02  3.44600000E+01  7.74900000E+00  2.28000000E+00
  7.15600000E-01  2.14000000E-01  5.97400000E-02  2.31400000E+00  6.45000000E-01
  2.14000000E-01  1.42800000E+00  5.00000000E-01  1.53300000E+04  2.29900000E+03
  5.22400000E+02  1.47300000E+02  4.75500000E+01  1.67600000E+01  6.20700000E+00
  5.22400000E+02  1.47300000E+02  4.75500000E+01  1.67600000E+01  6.20700000E+00
  6.88200000E-01  1.75200000E+00  2.38400000E-01  7.37600000E-02  3.44600000E+01
  7.74900000E+00  2.28000000E+00  7.15600000E-01  2.14000000E-01  5.97400000E-02
  2.31400000E+00  6.45000000E-01  2.14000000E-01  1.42800000E+00  5.00000000E-01
  1.14200000E+04  1.71200000E+03  3.89300000E+02  1.10000000E+02  3.55700000E+01
  1.25400000E+01  4.64400000E+00  3.89300000E+02  1.10000000E+02  3.55700000E+01
  1.25400000E+01  4.64400000E+00  5.11800000E-01  1.29300000E+00  1.78700000E-01
  5.76000000E-02  2.66300000E+01  5.94800000E+00  1.74200000E+00  5.55000000E-01
  1.72500000E-01  4.91000000E-02  1.65400000E+00  4.69000000E-01  1.51000000E-01
  1.09300000E+00  3.64000000E-01  1.53300000E+04  2.29900000E+03  5.22400000E+02
  1.47300000E+02  4.75500000E+01  1.67600000E+01  6.20700000E+00  5.22400000E+02
  1.47300000E+02  4.75500000E+01  1.67600000E+01  6.20700000E+00  6.88200000E-01
  1.75200000E+00  2.38400000E-01  7.37600000E-02  3.44600000E+01  7.74900000E+00
  2.28000000E+00  7.15600000E-01  2.14000000E-01  5.97400000E-02  2.31400000E+00
  6.45000000E-01  2.14000000E-01  1.42800000E+00  5.00000000E-01
Contraction coefficients                   R   N=         119
  2.54948632E-02  1.90362766E-01  8.52162022E-01  1.00000000E+00  1.00000000E+00
  1.00000000E+00  1.00000000E+00  1.00000000E+00  1.00000000E+00  1.00000000E+00
  1.00000000E+00  5.19808943E-04  4.02025621E-03  2.07128267E-02  8.10105536E-02
  2.35962985E-01  4.42653446E-01  3.57064423E-01 -4.42115008E-05 -1.22591041E-03
 -1.05517725E-02 -6.74452633E-02 -1.71198607E-01  1.07329856E+00  1.00000000E+00
  1.00000000E+00  1.00000000E+00  4.11634896E-02  2.57762836E-01  8.02419274E-01
  1.00000000E+00  1.00000000E+00  1.00000000E+00  1.00000000E+00  1.00000000E+00
  1.00000000E+00  1.00000000E+00  1.00000000E+00  5.19808943E-04  4.02025621E-03
  2.07128267E-02  8.10105536E-02  2.35962985E-01  4.42653446E-01  3.57064423E-01
 -4.42115008E-05 -1.22591041E-03 -1.05517725E-02 -6.74452633E-02 -1.71198607E-01
  1.07329856E+00  1.00000000E+00  1.00000000E+00  1.00000000E+00  4.11634896E-02
  2.57762836E-01  8.02419274E-01  1.00000000E+00  1.00000000E+00  1.00000000E+00
  1.00000000E+00  1.00000000E+00  1.00000000E+00  1.00000000E+00  1.00000000E+00
  5.34563860E-04  4.13435660E-03  2.12335358E-02  8.25006224E-02  2.38138871E-01
  4.42551547E-01  3.53757422E-01 -4.89867350E-05 -1.19527323E-03 -1.03490714E-02
 -6.48680190E-02 -1.71552477E-01  1.07289568E+00  1.00000000E+00  1.00000000E+00
  1.00000000E+00  3.98072123E-02  2.49002660E-01  8.10479727E-01  1.00000000E+00
  1.00000000E+00  1.00000000E+00  1.00000000E+00  1.00000000E+00  1.00000000E+00
  1.00000000E+00  1.00000000E+00  5.19808943E-04  4.02025621E-03  2.07128267E-02
  8.10105536E-02  2.35962985E-01  4.42653446E-01  3.57064423E-01 -4.42115008E-05
 -1.22591041E-03 -1.05517725E-02 -6.74452633E-02 -1.71198607E-01  1.07329856E+00
  1.00000000E+00  1.00000000E+00  1.00000000E+00  4.11634896E-02  2.57762836E-01
  8.02419274E-01  1.00000000E+00  1.00000000E+00  1.00000000E+00  1.00000000E+00
  1.00000000E+00  1.00000000E+00  1.00000000E+00  1.00000000E+00
Coordinates of each shell                  R   N=         195
  2.05898947E+00 -1.14573908E+00  0.00000000E+00  2.05898947E+00 -1.14573908E+00
  0.00000000E+00  2.05898947E+00 -1.14573908E+00  0.00000000E+00  2.05898947E+00
 -1.14573908E+00  0.00000000E+00  2.05898947E+00 -1.14573908E+00  0.00000000E+00
  2.05898947E+00 -1.14573908E+00  0.00000000E+00  2.05898947E+00 -1.14573908E+00
  0.00000000E+00  2.05898947E+00 -1.14573908E+00  0.00000000E+00  2.05898947E+00
 -1.14573908E+00  0.00000000E+00  2.47291533E+00  6.69764133E-01  0.00000000E+00
  2.47291533E+00  6.69764133E-01  0.00000000E+00  2.47291533E+00  6.69764133E-01
  0.00000000E+00  2.47291533E+00  6.69764133E-01  0.00000000E+00  2.47291533E+00
  6.69764133E-01  0.00000000E+00  2.47291533E+00  6.69764133E-01  0.00000000E+00
  2.47291533E+00  6.69764133E-01  0.00000000E+00  2.47291533E+00  6.69764133E-01
  0.00000000E+00  2.47291533E+00  6.69764133E-01  0.00000000E+00  2.47291533E+00
  6.69764133E-01  0.00000000E+00  2.47291533E+00  6.69764133E-01  0.00000000E+00
  2.47291533E+00  6.69764133E-01  0.00000000E+00  2.47291533E+00  6.69764133E-01
  0.00000000E+00  2.47291533E+00  6.69764133E-01  0.00000000E+00 -6.15304917E-18
  1.74394705E+00  0.00000000E+00 -6.15304917E-18  1.74394705E+00  0.00000000E+00
 -6.15304917E-18  1.74394705E+00  0.00000000E+00 -6.15304917E-18  1.74394705E+00
  0.00000000E+00 -6.15304917E-18  1.74394705E+00  0.00000000E+00 -6.15304917E-18
  1.74394705E+00  0.00000000E+00 -6.15304917E-18  1.74394705E+00  0.00000000E+00
 -6.15304917E-18  1.74394705E+00  0.00000000E+00 -6.15304917E-18  1.74394705E+00
  0.00000000E+00 -6.15304917E-18  1.74394705E+00  0.00000000E+00 -6.15304917E-18
  1.74394705E+00  0.00000000E+00 -6.15304917E-18  1.74394705E+00  0.00000000E+00
 -6.15304917E-18  1.74394705E+00  0.00000000E+00 -6.15304917E-18  1.74394705E+00
  0.00000000E+00 -1.86755060E+00 -7.92128542E-02  0.00000000E+00 -1.86755060E+00
 -7.92128542E-02  0.00000000E+00 -1.86755060E+00 -7.92128542E-02  0.00000000E+00
 -1.86755060E+00 -7.92128542E-02  0.00000000E+00 -1.86755060E+00 -7.92128542E-02
  0.00000000E+00 -1.86755060E+00 -7.92128542E-02  0.00000000E+00 -1.86755060E+00
 -7.92128542E-02  0.00000000E+00 -1.86755060E+00 -7.92128542E-02  0.00000000E+00
 -1.86755060E+00 -7.92128542E-02  0.00000000E+00 -1.86755060E+00 -7.92128542E-02
  0.00000000E+00 -1.86755060E+00 -7.92128542E-02  0.00000000E+00 -1.86755060E+00
 -7.92128542E-02  0.00000000E+00 -1.86755060E+00 -7.92128542E-02  0.00000000E+00
 -1.86755060E+00 -7.92128542E-02  0.00000000E+00 -1.09618224E+00 -2.20118255E+00
  0.00000000E+00 -1.09618224E+00 -2.20118255E+00  0.00000000E+00 -1.09618224E+00
 -2.20118255E+00  0.00000000E+00 -1.09618224E+00 -2.20118255E+00  0.00000000E+00
 -1.09618224E+00 -2.20118255E+00  0.00000000E+00 -1.09618224E+00 -2.20118255E+00
  0.00000000E+00 -1.09618224E+00 -2.20118255E+00  0.00000000E+00 -1.09618224E+00
 -2.20118255E+00  0.00000000E+00 -1.09618224E+00 -2.20118255E+00  0.00000000E+00
 -1.09618224E+00 -2.20118255E+00  0.00000000E+00 -1.09618224E+00 -2.20118255E+00
  0.00000000E+00 -1.09618224E+00 -2.20118255E+00  0.00000000E+00 -1.09618224E+00
 -2.20118255E+00  0.00000000E+00 -1.09618224E+00 -2.20118255E+00  0.00000000E+00
Num ILSW                                   I              100
ILSW                                       I   N=         100
           0           0           0           0           2           0
           0           0           0           0           0          -1
           5           0           0           0           2           0
           0           0           0           0           1           0
           1           0           0           0           0           0
           0           0      100000           0          -1           0
           0           0           0           0           0           0
           0           0           0           1           1           0
           0 -2000000000           1           0           0           0
           0           0           4          52           0           0
           0           0           0           0           0           0
           0           0           0           5           4           1
           0           0           0           0           0           0
           0           0           0           0           0           0
           0           0           0           0           0           0
           0           0           0           0           0           0
           0           0           0           0
Num RLSW                                   I               52
RLSW                                       R   N=          52
  1.00000000E+00  1.00000000E+00  1.00000000E+00  1.00000000E+00  1.00000000E+00
  0.00000000E+00  0.00000000E+00  1.00000000E+00  0.00000000E+00  0.00000000E+00
  0.00000000E+00  0.00000000E+00  1.00000000E+00  0.00000000E+00  0.00000000E+00
  0.00000000E+00  0.00000000E+00  1.00000000E+00  0.00000000E+00  0.00000000E+00
  0.00000000E+00  0.00000000E+00  1.00000000E+00  0.00000000E+00  0.00000000E+00
  0.00000000E+00  0.00000000E+00  1.00000000E+00  0.00000000E+00  0.00000000E+00
  0.00000000E+00  0.00000000E+00  1.00000000E+00  0.00000000E+00  0.00000000E+00
  0.00000000E+00  0.00000000E+00  0.00000000E+00  1.00000000E+00  1.00000000E+00
  0.00000000E+00  1.00000000E+00  0.00000000E+00  0.00000000E+00  0.00000000E+00
  0.00000000E+00  0.00000000E+00  0.00000000E+00  0.00000000E+00  0.00000000E+00
  0.00000000E+00  0.00000000E+00
MxBond                                     I                2
NBond                                      I   N=           5
           1           2           2           2           1
IBond                                      I   N=          10
           2           0           1           3           2           4
           3           5           4           0
RBond                                      R   N=          10
  1.00000000E+00  0.00000000E+00  1.00000000E+00  1.00000000E+00  1.00000000E+00
  1.00000000E+00  1.00000000E+00  2.00000000E+00  2.00000000E+00  0.00000000E+00
Virial Ratio                               R      2.002201701437424E+00
SCF Energy                                 R     -2.795061514063007E+02
MP2 Energy                                 R     -2.804551658332125E+02
Total Energy                               R     -2.804551658332125E+02
Post-SCF wavefunction norm                 R      1.583704785549309E+00
RMS Force                                  R      1.717110378463813E-03
RMS Density                                R      4.623070228579072E-09
NImag                                      I                0
Job Status                                 I                1
Nuclear derivative order                   I                2
External E-field                           R   N=          35
  0.00000000E+00  0.00000000E+00  0.00000000E+00  0.00000000E+00  0.00000000E+00
  0.00000000E+00  0.00000000E+00  0.00000000E+00  0.00000000E+00  0.00000000E+00
  0.00000000E+00  0.00000000E+00  0.00000000E+00  0.00000000E+00  0.00000000E+00
  0.00000000E+00  0.00000000E+00  0.00000000E+00  0.00000000E+00  0.00000000E+00
  0.00000000E+00  0.00000000E+00  0.00000000E+00  0.00000000E+00  0.00000000E+00
  0.00000000E+00  0.00000000E+00  0.00000000E+00  0.00000000E+00  0.00000000E+00
  0.00000000E+00  0.00000000E+00  0.00000000E+00  0.00000000E+00  0.00000000E+00
IOpCl                                      I                0
IROHF                                      I                0
Alpha Orbital Energies                     R   N=         207
 -2.07209153E+01 -2.06878112E+01 -2.06669796E+01 -1.58260189E+01 -1.64563291E+00
 -1.50502030E+00 -1.29373147E+00 -9.60506263E-01 -8.36597227E-01 -7.59405714E-01
 -7.40705454E-01 -6.36189690E-01 -6.19394382E-01 -6.18053566E-01 -5.05325415E-01
 -4.97786190E-01  3.52509791E-02  5.98286561E-02  9.50512774E-02  1.00066245E-01
  1.19700810E-01  1.22712140E-01  1.49694562E-01  1.52582794E-01  1.77434867E-01
  1.80084250E-01  1.89666361E-01  2.10983477E-01  2.16714025E-01  2.43649995E-01
  2.46246395E-01  2.69125688E-01  3.14074869E-01  3.18116317E-01  3.38135286E-01
  3.42548452E-01  3.46432660E-01  3.93608085E-01  4.50488463E-01  4.89274736E-01
  5.05337890E-01  5.17855789E-01  5.45235191E-01  5.60851701E-01  5.98164621E-01
  6.20024008E-01  6.39037634E-01  6.90255558E-01  7.16675451E-01  7.23617765E-01
  7.44334481E-01  7.65493090E-01  7.67885298E-01  7.95854876E-01  8.07836729E-01
  8.38548663E-01  8.42668846E-01  8.52125451E-01  8.85329239E-01  9.08574568E-01
  9.32141665E-01  9.47552367E-01  9.54792994E-01  1.01819601E+00  1.03410668E+00
  1.06678422E+00  1.07025770E+00  1.09773734E+00  1.14761344E+00  1.15654337E+00
  1.16974855E+00  1.22263001E+00  1.22886108E+00  1.24529150E+00  1.35497705E+00
  1.35847057E+00  1.37007070E+00  1.46918429E+00  1.48558253E+00  1.50363344E+00
  1.54504948E+00  1.59678534E+00  1.60007799E+00  1.60592270E+00  1.63183968E+00
  1.69583524E+00  1.74107185E+00  1.80014834E+00  1.82868729E+00  1.88812470E+00
  1.89871361E+00  1.93189926E+00  1.98012241E+00  1.99178466E+00  2.05274387E+00
  2.12144569E+00  2.13259225E+00  2.16702328E+00  2.19095236E+00  2.24510634E+00
  2.26177109E+00  2.29330589E+00  2.35716448E+00  2.37065857E+00  2.38490515E+00
  2.40471266E+00  2.43596544E+00  2.47056520E+00  2.48206132E+00  2.53173297E+00
  2.54026070E+00  2.55190548E+00  2.56043063E+00  2.61889349E+00  2.63262316E+00
  2.67512552E+00  2.67839626E+00  2.75516742E+00  2.80959416E+00  2.82266828E+00
  2.83930531E+00  2.92179631E+00  2.98590989E+00  3.04788489E+00  3.05524530E+00
  3.11227174E+00  3.11947430E+00  3.18457220E+00  3.21469313E+00  3.30915500E+00
  3.33222810E+00  3.35693792E+00  3.48227082E+00  3.67375682E+00  3.87054268E+00
  3.94033681E+00  4.18977463E+00  4.22681604E+00  4.23145951E+00  4.27532023E+00
  4.37377012E+00  4.49748898E+00  4.55017522E+00  4.55544090E+00  4.60065148E+00
  4.68930305E+00  4.80798297E+00  4.89649195E+00  4.91516806E+00  4.94326034E+00
  4.99918995E+00  5.00464355E+00  5.10585789E+00  5.13772298E+00  5.17707406E+00
  5.25329096E+00  5.25892743E+00  5.31891178E+00  5.35203016E+00  5.37641038E+00
  5.54307006E+00  5.64433100E+00  5.70838301E+00  5.89137770E+00  5.99501613E+00
  6.26292739E+00  6.29532100E+00  6.36078450E+00  6.37606966E+00  6.59971147E+00
  6.66086647E+00  6.66585639E+00  6.69540873E+00  6.72434463E+00  6.79402336E+00
  6.80450547E+00  6.85526587E+00  6.96843437E+00  7.02017142E+00  7.06631875E+00
  7.07958581E+00  7.13987782E+00  7.17492410E+00  7.18910089E+00  7.20510234E+00
  7.24689298E+00  7.24787826E+00  7.27285249E+00  7.35285923E+00  7.39885266E+00
  7.43037481E+00  7.44162606E+00  7.46283821E+00  7.56424406E+00  7.66219257E+00
  7.67841657E+00  7.79395030E+00  7.88603935E+00  7.95794552E+00  8.08175395E+00
  8.31271328E+00  8.50554100E+00  8.65019689E+00  1.36312873E+01  1.47426399E+01
  1.51276557E+01  1.58052236E+01
Alpha MO coefficients                      R   N=       42849
  6.28110187E-05  1.16102262E-05 -1.10529081E-03  1.04865404E-05 -5.07604610E-05
  4.11582663E-05  0.00000000E+00 -9.40104785E-05 -2.74482676E-04  0.00000000E+00
 -2.11067177E-05 -3.53313433E-04  0.00000000E+00  4.09107974E-05  0.00000000E+00
  0.00000000E+00 -2.35220754E-05  1.32381020E-05  2.32119322E-04  0.00000000E+00
  0.00000000E+00 -4.11784861E-05 -2.15034065E-04  2.94068487E-03 -9.53751850E-05
 -1.03291866E-04  3.49086973E-03  2.46505394E-03  1.00682639E-04 -5.42702274E-05
  0.00000000E+00 -7.15270811E-04  2.93809998E-04  0.00000000E+00 -1.92323771E-03
  1.17020339E-03  0.00000000E+00 -5.30655211E-04  3.29664463E-05  0.00000000E+00
  2.04755433E-05  0.00000000E+00  0.00000000E+00 -7.72180000E-06  4.44210247E-05
 -4.40222325E-04  0.00000000E+00  0.00000000E+00  4.07399480E-04 -6.71619546E-04
 -3.59778094E-04  0.00000000E+00  0.00000000E+00  5.15229708E-04 -7.66750301E-04
  0.00000000E+00  7.27253949E-05 -5.29330958E-05  0.00000000E+00  0.00000000E+00
 -2.41076798E-05  1.09506858E-04  0.00000000E+00  2.08864337E-04 -5.48568277E-05
  0.00000000E+00  0.00000000E+00 -1.52994079E-04  3.04440513E-04  9.76906118E-01
 -9.18003048E-03  4.34007189E-02  5.19285632E-04 -2.22990762E-03  4.36052824E-04
 -2.15323309E-03  0.00000000E+00 -3.08885999E-04  2.26534065E-03  0.00000000E+00
 -2.27039445E-03 -5.08333668E-04  0.00000000E+00 -2.03527252E-04  1.06348777E-04
  0.00000000E+00  8.54228243E-06  0.00000000E+00  0.00000000E+00 -6.52397750E-06
  3.64885106E-05  8.22663464E-04  0.00000000E+00  0.00000000E+00 -4.57961489E-04
 -1.59599040E-04 -1.39884747E-04  0.00000000E+00  0.00000000E+00 -5.76061899E-04
  3.51890325E-04  0.00000000E+00 -6.46637770E-06 -8.00928823E-05  0.00000000E+00
  0.00000000E+00 -8.37285713E-06  4.79854592E-05  0.00000000E+00  8.96281071E-05
  1.83838977E-06  0.00000000E+00  0.00000000E+00 -3.24397735E-04  3.80619805E-04
  1.03867028E-04  4.54075739E-04 -3.23866004E-04 -8.15201273E-04  4.04804459E-04
 -4.33507626E-05 -9.98570399E-05  0.00000000E+00  6.86334457E-04  1.10441392E-03
  0.00000000E+00 -7.72395208E-04 -6.14805114E-04  0.00000000E+00  2.03519799E-04
  2.19105556E-04  0.00000000E+00 -5.17906872E-05  0.00000000E+00  0.00000000E+00
  1.88674077E-05  9.31971245E-05 -4.18759676E-04  0.00000000E+00  0.00000000E+00
  2.13190925E-05  1.07626366E-03  2.38838295E-05  0.00000000E+00  0.00000000E+00
 -3.28397797E-04  3.64344709E-05  0.00000000E+00 -7.82054666E-05 -1.13067709E-04
  0.00000000E+00  0.00000000E+00 -9.83683848E-05  1.05967013E-04  0.00000000E+00
 -1.27337533E-04  4.17367600E-05  0.00000000E+00  0.00000000E+00  4.59881713E-06
  5.11548899E-04 -6.91128462E-04  4.49783357E-05 -6.93894138E-05  2.32492752E-04
 -2.17768228E-04 -2.91911208E-05 -4.08449393E-05  0.00000000E+00  1.70402637E-04
  2.48702888E-04  0.00000000E+00  5.25807207E-04  3.20521297E-04  0.00000000E+00
 -2.25120631E-04 -7.00493557E-05  0.00000000E+00 -1.28072179E-05  0.00000000E+00
  0.00000000E+00  3.05056932E-06  1.55767370E-05 -1.75063303E-06  0.00000000E+00
  0.00000000E+00 -1.59917957E-04  8.88284673E-06 -1.68578427E-05  0.00000000E+00
  0.00000000E+00 -1.71960220E-04 -4.47027973E-05  0.00000000E+00 -6.26191790E-06
 -9.12342037E-06  0.00000000E+00  0.00000000E+00 -2.07276556E-05  9.81739627E-06
  0.00000000E+00  4.10174577E-05  6.16777773E-05  0.00000000E+00  0.00000000E+00
  1.54164184E-04 -1.04323571E-04  3.80789807E-05  6.69161804E-05 -8.69830666E-05
 -3.10966712E-05  2.63978796E-05  1.73560525E-05  0.00000000E+00  2.23934183E-04
  4.54122047E-05  0.00000000E+00  1.11965244E-04  1.78437362E-05  0.00000000E+00
  9.23277751E-06  0.00000000E+00  0.00000000E+00 -6.94791113E-06  2.13258535E-05
  1.41308502E-05  0.00000000E+00  0.00000000E+00 -8.54733250E-05  7.52145987E-05
 -2.53568793E-04  3.70735464E-05 -1.50309915E-05 -5.66191294E-04  1.49122428E-04
  8.38453229E-06  1.28743187E-05  0.00000000E+00 -8.20535776E-06 -4.11606781E-05
  0.00000000E+00  1.99118187E-04  1.38948049E-04  0.00000000E+00 -3.98969554E-05
  5.28873153E-05  0.00000000E+00 -2.65693918E-06  0.00000000E+00  0.00000000E+00
 -8.77101534E-06 -1.05990336E-05  2.65287918E-05  0.00000000E+00  0.00000000E+00
  5.93529357E-05  1.07035734E-04  6.68049954E-05  0.00000000E+00  0.00000000E+00
 -3.92081308E-05 -8.30675721E-05  0.00000000E+00  8.14184337E-06  9.20991935E-06
  0.00000000E+00  0.00000000E+00 -1.55000497E-06 -2.73721066E-05  0.00000000E+00
 -1.61073014E-05 -3.95320260E-05  0.00000000E+00  0.00000000E+00 -6.20627868E-06
 -1.53907982E-05  7.18866391E-04  2.24739452E-05 -1.95291031E-05  2.97617143E-04
 -4.03938811E-04  1.66558595E-05  2.73155737E-05  0.00000000E+00 -6.65484371E-05
 -1.53879267E-04  0.00000000E+00  1.61986009E-04 -2.18761769E-04  0.00000000E+00
 -1.57698512E-04  1.43757653E-04  0.00000000E+00 -4.11871287E-06  0.00000000E+00
  0.00000000E+00 -2.92973118E-05 -1.02116861E-05 -5.11534372E-05  0.00000000E+00
  0.00000000E+00  7.72982008E-05  1.23272177E-04 -6.46822696E-05  0.00000000E+00
  0.00000000E+00  2.89671935E-05  2.62046387E-05  0.00000000E+00  3.13471618E-06
  3.34497787E-06  0.00000000E+00  0.00000000E+00 -8.15106538E-06 -2.79105945E-06
  0.00000000E+00  3.61601946E-06 -2.50211664E-05  0.00000000E+00  0.00000000E+00
  9.88298628E-05 -1.52094327E-04  2.36584313E-04  1.35524414E-03 -1.46400524E-04
 -7.11953399E-04  9.20369729E-04  6.35408699E-05 -7.08282956E-05  0.00000000E+00
  5.76541830E-04 -2.08123883E-03  0.00000000E+00  1.02622390E-04  5.27980208E-04
  0.00000000E+00  1.90585836E-04 -3.06623053E-04  0.00000000E+00 -1.27540633E-04
  0.00000000E+00  0.00000000E+00 -2.03045856E-04 -1.59350821E-04 -4.60399975E-04
  0.00000000E+00  0.00000000E+00 -5.97066858E-04 -9.26385926E-04 -4.33189920E-05
  0.00000000E+00  0.00000000E+00  5.62907089E-05  1.25516065E-04  0.00000000E+00
  8.32237902E-06  3.70627008E-05  0.00000000E+00  0.00000000E+00 -2.45483147E-05
 -4.46384959E-06  0.00000000E+00 -1.37043011E-04  1.55888912E-04  0.00000000E+00
  0.00000000E+00 -3.16779057E-04 -4.08320851E-05  9.76645002E-01 -9.88389180E-03
  4.35772731E-02  3.70410362E-03 -9.05825801E-04 -4.48663123E-04  2.13105817E-03
  0.00000000E+00  5.19263544E-04 -2.50567622E-03  0.00000000E+00 -9.23815831E-05
  8.29429971E-04  0.00000000E+00  1.03439893E-04 -6.52514948E-05  0.00000000E+00
 -1.93752117E-04  0.00000000E+00  0.00000000E+00 -7.34901882E-05 -4.36095069E-05
  4.08899995E-04  0.00000000E+00  0.00000000E+00  8.56492276E-04  4.87932481E-04
 -2.02050873E-04  0.00000000E+00  0.00000000E+00 -1.50252544E-04 -3.69277473E-05
  0.00000000E+00 -5.75770019E-06  7.02209362E-05  0.00000000E+00  0.00000000E+00
 -2.76776705E-05  1.05092059E-05  0.00000000E+00 -8.71717697E-05  9.13595590E-05
  0.00000000E+00  0.00000000E+00 -1.72154250E-04  2.03175719E-04  3.69885830E-04
  1.99253732E-03  1.47783380E-03 -1.73356030E-05  5.46647368E-05  2.65707151E-04
  0.00000000E+00  3.69481810E-04  1.01294770E-03  0.00000000E+00 -1.63097717E-04
  2.35474903E-04  0.00000000E+00 -2.36972313E-05  0.00000000E+00  0.00000000E+00
  3.44718523E-05 -3.18742155E-05 -2.25353821E-04  0.00000000E+00  0.00000000E+00
 -3.40369173E-04  4.23612798E-04  9.76831490E-01 -9.18952819E-03  4.34707878E-02
  1.16702075E-04 -1.90366193E-03 -2.05704242E-03 -7.98928896E-04  0.00000000E+00
  2.09549262E-03  7.34366973E-04  0.00000000E+00 -3.84756349E-04  6.30593680E-04
  0.00000000E+00  2.24990549E-04 -3.05596028E-04  0.00000000E+00  2.94711529E-05
  0.00000000E+00  0.00000000E+00 -7.27034610E-05  6.65110387E-05  7.65161662E-04
  0.00000000E+00  0.00000000E+00 -2.04528122E-04  3.59489001E-04 -2.43235743E-04
  0.00000000E+00  0.00000000E+00  3.25189006E-04  8.01661923E-07  0.00000000E+00
 -8.08896836E-05  2.74933131E-06  0.00000000E+00  0.00000000E+00  1.43543130E-05