title                                                                   
Freq      RMP2-FC                                                     Aug-CC-pVTZ         
Number of atoms                            I                5
Info1-9                                    I   N=           9
          33          24           0           0           0         100
           6           2           1
Full Title                                 C   N=           1
title       
Route                                      C   N=           4
#p freq mp2/aug-cc-pvtz density=current         
Charge                                     I                0
Multiplicity                               I                1
Number of electrons                        I               32
Number of alpha electrons                  I               16
Number of beta electrons                   I               16
Number of basis functions                  I              207
Number of independent functions            I              207
Number of point charges in /Mol/           I                0
Number of translation vectors              I                0
Atomic numbers                             I   N=           5
           1           8           8           7           8
Nuclear charges                            R   N=           5
  1.00000000E+00  8.00000000E+00  8.00000000E+00  7.00000000E+00  8.00000000E+00
Current cartesian coordinates              R   N=          15
  2.16220864E+00 -1.14591675E+00 -4.93038066E-32  2.48524449E+00  6.87941033E-01
  0.00000000E+00  2.88294682E-17  1.73328260E+00  2.46519033E-32 -1.87584339E+00
 -8.13437615E-02 -9.86076132E-32 -1.11415760E+00 -2.20680825E+00 -2.46519033E-32
Number of symbols in /Mol/                 I                0
Force Field                                I                0
Atom Types                                 C   N=           5
                                                            
Int Atom Types                             I   N=           5
           0           0           0           0           0
MM charges                                 R   N=           5
  0.00000000E+00  0.00000000E+00  0.00000000E+00  0.00000000E+00  0.00000000E+00
Integer atomic weights                     I   N=           5
           1          16          16          14          16
Real atomic weights                        R   N=           5
  1.00782504E+00  1.59949146E+01  1.59949146E+01  1.40030740E+01  1.59949146E+01
Atom fragment info                         I   N=           5
           0           0           0           0           0
Atom residue num                           I   N=           5
           0           0           0           0           0
Nuclear spins                              I   N=           5
           1           0           0           2           0
Nuclear ZEff                               R   N=           5
 -1.00000000E+00 -5.60000000E+00 -5.60000000E+00 -4.55000000E+00 -5.60000000E+00
Nuclear ZNuc                               R   N=           5
  1.00000000E+00  8.00000000E+00  8.00000000E+00  7.00000000E+00  8.00000000E+00
Nuclear QMom                               R   N=           5
  0.00000000E+00  0.00000000E+00  0.00000000E+00  2.04400000E+00  0.00000000E+00
Nuclear GFac                               R   N=           5
  2.79284600E+00  0.00000000E+00  0.00000000E+00  4.03761000E-01  0.00000000E+00
MicOpt                                     I   N=           5
          -1          -1          -1          -1          -1
Number of residues                         I                0
Number of secondary structures             I                0
SymInf integers                            I   N=          26
           1           2           1           1           1           1
           1          -1           0           0           0           0
           0           0           0           0           0           0
           0           0           0           0           0           0
           0           0
RotTr to input orientation                 R   N=          12
 -9.84837379E-01  1.25027834E-16  1.73480075E-01  1.73480075E-01 -2.20237762E-17
  9.84837379E-01  1.26952771E-16  1.00000000E+00  0.00000000E+00  2.32821761E+00
  0.00000000E+00  7.53441533E-01
Number of contracted shells                I               65
Number of primitive shells                 I              119
Pure/Cartesian d shells                    I                0
Pure/Cartesian f shells                    I                0
Highest angular momentum                   I                3
Largest degree of contraction              I                7
Shell types                                I   N=          65
           0           0           0           0           1           1
           1          -2          -2           0           0           0
           0           0           1           1           1           1
          -2          -2          -2          -3          -3           0
           0           0           0           0           1           1
           1           1          -2          -2          -2          -3
          -3           0           0           0           0           0
           1           1           1           1          -2          -2
          -2          -3          -3           0           0           0
           0           0           1           1           1           1
          -2          -2          -2          -3          -3
Number of primitives per shell             I   N=          65
           3           1           1           1           1           1
           1           1           1           7           6           1
           1           1           3           1           1           1
           1           1           1           1           1           7
           6           1           1           1           3           1
           1           1           1           1           1           1
           1           7           6           1           1           1
           3           1           1           1           1           1
           1           1           1           7           6           1
           1           1           3           1           1           1
           1           1           1           1           1
Shell to atom map                          I   N=          65
           1           1           1           1           1           1
           1           1           1           2           2           2
           2           2           2           2           2           2
           2           2           2           2           2           3
           3           3           3           3           3           3
           3           3           3           3           3           3
           3           4           4           4           4           4
           4           4           4           4           4           4
           4           4           4           5           5           5
           5           5           5           5           5           5
           5           5           5           5           5
Primitive exponents                        R   N=         119
  3.38700000E+01  5.09500000E+00  1.15900000E+00  3.25800000E-01  1.02700000E-01
  2.52600000E-02  1.40700000E+00  3.88000000E-01  1.02000000E-01  1.05700000E+00
  2.47000000E-01  1.53300000E+04  2.29900000E+03  5.22400000E+02  1.47300000E+02
  4.75500000E+01  1.67600000E+01  6.20700000E+00  5.22400000E+02  1.47300000E+02
  4.75500000E+01  1.67600000E+01  6.20700000E+00  6.88200000E-01  1.75200000E+00
  2.38400000E-01  7.37600000E-02  3.44600000E+01  7.74900000E+00  2.28000000E+00
  7.15600000E-01  2.14000000E-01  5.97400000E-02  2.31400000E+00  6.45000000E-01
  2.14000000E-01  1.42800000E+00  5.00000000E-01  1.53300000E+04  2.29900000E+03
  5.22400000E+02  1.47300000E+02  4.75500000E+01  1.67600000E+01  6.20700000E+00
  5.22400000E+02  1.47300000E+02  4.75500000E+01  1.67600000E+01  6.20700000E+00
  6.88200000E-01  1.75200000E+00  2.38400000E-01  7.37600000E-02  3.44600000E+01
  7.74900000E+00  2.28000000E+00  7.15600000E-01  2.14000000E-01  5.97400000E-02
  2.31400000E+00  6.45000000E-01  2.14000000E-01  1.42800000E+00  5.00000000E-01
  1.14200000E+04  1.71200000E+03  3.89300000E+02  1.10000000E+02  3.55700000E+01
  1.25400000E+01  4.64400000E+00  3.89300000E+02  1.10000000E+02  3.55700000E+01
  1.25400000E+01  4.64400000E+00  5.11800000E-01  1.29300000E+00  1.78700000E-01
  5.76000000E-02  2.66300000E+01  5.94800000E+00  1.74200000E+00  5.55000000E-01
  1.72500000E-01  4.91000000E-02  1.65400000E+00  4.69000000E-01  1.51000000E-01
  1.09300000E+00  3.64000000E-01  1.53300000E+04  2.29900000E+03  5.22400000E+02
  1.47300000E+02  4.75500000E+01  1.67600000E+01  6.20700000E+00  5.22400000E+02
  1.47300000E+02  4.75500000E+01  1.67600000E+01  6.20700000E+00  6.88200000E-01
  1.75200000E+00  2.38400000E-01  7.37600000E-02  3.44600000E+01  7.74900000E+00
  2.28000000E+00  7.15600000E-01  2.14000000E-01  5.97400000E-02  2.31400000E+00
  6.45000000E-01  2.14000000E-01  1.42800000E+00  5.00000000E-01
Contraction coefficients                   R   N=         119
  2.54948632E-02  1.90362766E-01  8.52162022E-01  1.00000000E+00  1.00000000E+00
  1.00000000E+00  1.00000000E+00  1.00000000E+00  1.00000000E+00  1.00000000E+00
  1.00000000E+00  5.19808943E-04  4.02025621E-03  2.07128267E-02  8.10105536E-02
  2.35962985E-01  4.42653446E-01  3.57064423E-01 -4.42115008E-05 -1.22591041E-03
 -1.05517725E-02 -6.74452633E-02 -1.71198607E-01  1.07329856E+00  1.00000000E+00
  1.00000000E+00  1.00000000E+00  4.11634896E-02  2.57762836E-01  8.02419274E-01
  1.00000000E+00  1.00000000E+00  1.00000000E+00  1.00000000E+00  1.00000000E+00
  1.00000000E+00  1.00000000E+00  1.00000000E+00  5.19808943E-04  4.02025621E-03
  2.07128267E-02  8.10105536E-02  2.35962985E-01  4.42653446E-01  3.57064423E-01
 -4.42115008E-05 -1.22591041E-03 -1.05517725E-02 -6.74452633E-02 -1.71198607E-01
  1.07329856E+00  1.00000000E+00  1.00000000E+00  1.00000000E+00  4.11634896E-02
  2.57762836E-01  8.02419274E-01  1.00000000E+00  1.00000000E+00  1.00000000E+00
  1.00000000E+00  1.00000000E+00  1.00000000E+00  1.00000000E+00  1.00000000E+00
  5.34563860E-04  4.13435660E-03  2.12335358E-02  8.25006224E-02  2.38138871E-01
  4.42551547E-01  3.53757422E-01 -4.89867350E-05 -1.19527323E-03 -1.03490714E-02
 -6.48680190E-02 -1.71552477E-01  1.07289568E+00  1.00000000E+00  1.00000000E+00
  1.00000000E+00  3.98072123E-02  2.49002660E-01  8.10479727E-01  1.00000000E+00
  1.00000000E+00  1.00000000E+00  1.00000000E+00  1.00000000E+00  1.00000000E+00
  1.00000000E+00  1.00000000E+00  5.19808943E-04  4.02025621E-03  2.07128267E-02
  8.10105536E-02  2.35962985E-01  4.42653446E-01  3.57064423E-01 -4.42115008E-05
 -1.22591041E-03 -1.05517725E-02 -6.74452633E-02 -1.71198607E-01  1.07329856E+00
  1.00000000E+00  1.00000000E+00  1.00000000E+00  4.11634896E-02  2.57762836E-01
  8.02419274E-01  1.00000000E+00  1.00000000E+00  1.00000000E+00  1.00000000E+00
  1.00000000E+00  1.00000000E+00  1.00000000E+00  1.00000000E+00
Coordinates of each shell                  R   N=         195
  2.16220864E+00 -1.14591675E+00 -3.66794650E-32  2.16220864E+00 -1.14591675E+00
 -3.66794650E-32  2.16220864E+00 -1.14591675E+00 -3.66794650E-32  2.16220864E+00
 -1.14591675E+00 -3.66794650E-32  2.16220864E+00 -1.14591675E+00 -3.66794650E-32
  2.16220864E+00 -1.14591675E+00 -3.66794650E-32  2.16220864E+00 -1.14591675E+00
 -3.66794650E-32  2.16220864E+00 -1.14591675E+00 -3.66794650E-32  2.16220864E+00
 -1.14591675E+00 -3.66794650E-32  2.48524449E+00  6.87941033E-01 -1.74150401E-32
  2.48524449E+00  6.87941033E-01 -1.74150401E-32  2.48524449E+00  6.87941033E-01
 -1.74150401E-32  2.48524449E+00  6.87941033E-01 -1.74150401E-32  2.48524449E+00
  6.87941033E-01 -1.74150401E-32  2.48524449E+00  6.87941033E-01 -1.74150401E-32
  2.48524449E+00  6.87941033E-01 -1.74150401E-32  2.48524449E+00  6.87941033E-01
 -1.74150401E-32  2.48524449E+00  6.87941033E-01 -1.74150401E-32  2.48524449E+00
  6.87941033E-01 -1.74150401E-32  2.48524449E+00  6.87941033E-01 -1.74150401E-32
  2.48524449E+00  6.87941033E-01 -1.74150401E-32  2.48524449E+00  6.87941033E-01
 -1.74150401E-32  2.48524449E+00  6.87941033E-01 -1.74150401E-32 -6.16772081E-17
  1.73328260E+00  2.13903878E-32 -6.16772081E-17  1.73328260E+00  2.13903878E-32
 -6.16772081E-17  1.73328260E+00  2.13903878E-32 -6.16772081E-17  1.73328260E+00
  2.13903878E-32 -6.16772081E-17  1.73328260E+00  2.13903878E-32 -6.16772081E-17
  1.73328260E+00  2.13903878E-32 -6.16772081E-17  1.73328260E+00  2.13903878E-32
 -6.16772081E-17  1.73328260E+00  2.13903878E-32 -6.16772081E-17  1.73328260E+00
  2.13903878E-32 -6.16772081E-17  1.73328260E+00  2.13903878E-32 -6.16772081E-17
  1.73328260E+00  2.13903878E-32 -6.16772081E-17  1.73328260E+00  2.13903878E-32
 -6.16772081E-17  1.73328260E+00  2.13903878E-32 -6.16772081E-17  1.73328260E+00
  2.13903878E-32 -1.87584339E+00 -8.13437615E-02  1.85489576E-32 -1.87584339E+00
 -8.13437615E-02  1.85489576E-32 -1.87584339E+00 -8.13437615E-02  1.85489576E-32
 -1.87584339E+00 -8.13437615E-02  1.85489576E-32 -1.87584339E+00 -8.13437615E-02
  1.85489576E-32 -1.87584339E+00 -8.13437615E-02  1.85489576E-32 -1.87584339E+00
 -8.13437615E-02  1.85489576E-32 -1.87584339E+00 -8.13437615E-02  1.85489576E-32
 -1.87584339E+00 -8.13437615E-02  1.85489576E-32 -1.87584339E+00 -8.13437615E-02
  1.85489576E-32 -1.87584339E+00 -8.13437615E-02  1.85489576E-32 -1.87584339E+00
 -8.13437615E-02  1.85489576E-32 -1.87584339E+00 -8.13437615E-02  1.85489576E-32
 -1.87584339E+00 -8.13437615E-02  1.85489576E-32 -1.11415760E+00 -2.20680825E+00
 -1.56207525E-32 -1.11415760E+00 -2.20680825E+00 -1.56207525E-32 -1.11415760E+00
 -2.20680825E+00 -1.56207525E-32 -1.11415760E+00 -2.20680825E+00 -1.56207525E-32
 -1.11415760E+00 -2.20680825E+00 -1.56207525E-32 -1.11415760E+00 -2.20680825E+00
 -1.56207525E-32 -1.11415760E+00 -2.20680825E+00 -1.56207525E-32 -1.11415760E+00
 -2.20680825E+00 -1.56207525E-32 -1.11415760E+00 -2.20680825E+00 -1.56207525E-32
 -1.11415760E+00 -2.20680825E+00 -1.56207525E-32 -1.11415760E+00 -2.20680825E+00
 -1.56207525E-32 -1.11415760E+00 -2.20680825E+00 -1.56207525E-32 -1.11415760E+00
 -2.20680825E+00 -1.56207525E-32 -1.11415760E+00 -2.20680825E+00 -1.56207525E-32
Num ILSW                                   I              100
ILSW                                       I   N=         100
           0           0           0           0           2           0
           0           0           0           0           0          -1
           5           0           0           0           2           0
           0           0           0           0           1           0
           1           0           0           0           0           0
           0           0      100000           0          -1           0
           0           0           0           0           0           0
           0           0           0           1           1           0
           0 -2000000000           1           0           0           0
           0           0           4          52           0           0
           0           0           0           0           0           0
           0           0           0           5           4           1
           0           0           0           0           0           0
           0           0           0           0           0           0
           0           0           0           0           0           0
           0           0           0           0           0           0
           0           0           0           0
Num RLSW                                   I               52
RLSW                                       R   N=          52
  1.00000000E+00  1.00000000E+00  1.00000000E+00  1.00000000E+00  1.00000000E+00
  0.00000000E+00  0.00000000E+00  1.00000000E+00  0.00000000E+00  0.00000000E+00
  0.00000000E+00  0.00000000E+00  1.00000000E+00  0.00000000E+00  0.00000000E+00
  0.00000000E+00  0.00000000E+00  1.00000000E+00  0.00000000E+00  0.00000000E+00
  0.00000000E+00  0.00000000E+00  1.00000000E+00  0.00000000E+00  0.00000000E+00
  0.00000000E+00  0.00000000E+00  1.00000000E+00  0.00000000E+00  0.00000000E+00
  0.00000000E+00  0.00000000E+00  1.00000000E+00  0.00000000E+00  0.00000000E+00
  0.00000000E+00  0.00000000E+00  0.00000000E+00  1.00000000E+00  1.00000000E+00
  0.00000000E+00  1.00000000E+00  0.00000000E+00  0.00000000E+00  0.00000000E+00
  0.00000000E+00  0.00000000E+00  0.00000000E+00  0.00000000E+00  0.00000000E+00
  0.00000000E+00  0.00000000E+00
MxBond                                     I                2
NBond                                      I   N=           5
           1           2           2           2           1
IBond                                      I   N=          10
           2           0           1           3           2           4
           3           5           4           0
RBond                                      R   N=          10
  1.00000000E+00  0.00000000E+00  1.00000000E+00  1.00000000E+00  1.00000000E+00
  1.00000000E+00  1.00000000E+00  2.00000000E+00  2.00000000E+00  0.00000000E+00
Virial Ratio                               R      2.002260833898220E+00
SCF Energy                                 R     -2.795066826030256E+02
MP2 Energy                                 R     -2.804550602842307E+02
Total Energy                               R     -2.804550602842307E+02
Post-SCF wavefunction norm                 R      1.583647175824131E+00
RMS Force                                  R      2.074342482625370E-03
RMS Density                                R      4.341422634936101E-09
NImag                                      I                0
Job Status                                 I                1
Nuclear derivative order                   I                2
External E-field                           R   N=          35
  0.00000000E+00  0.00000000E+00  0.00000000E+00  0.00000000E+00  0.00000000E+00
  0.00000000E+00  0.00000000E+00  0.00000000E+00  0.00000000E+00  0.00000000E+00
  0.00000000E+00  0.00000000E+00  0.00000000E+00  0.00000000E+00  0.00000000E+00
  0.00000000E+00  0.00000000E+00  0.00000000E+00  0.00000000E+00  0.00000000E+00
  0.00000000E+00  0.00000000E+00  0.00000000E+00  0.00000000E+00  0.00000000E+00
  0.00000000E+00  0.00000000E+00  0.00000000E+00  0.00000000E+00  0.00000000E+00
  0.00000000E+00  0.00000000E+00  0.00000000E+00  0.00000000E+00  0.00000000E+00
IOpCl                                      I                0
IROHF                                      I                0
Alpha Orbital Energies                     R   N=         207
 -2.07201057E+01 -2.06859814E+01 -2.06676990E+01 -1.58249684E+01 -1.64262442E+00
 -1.50393391E+00 -1.29359748E+00 -9.60424175E-01 -8.32833043E-01 -7.58138331E-01
 -7.39177320E-01 -6.36775122E-01 -6.18206838E-01 -6.17454948E-01 -5.03311248E-01
 -4.97274601E-01  3.46561407E-02  6.11574849E-02  9.52321734E-02  1.00445001E-01
  1.20131170E-01  1.22589753E-01  1.49177314E-01  1.51016974E-01  1.77735413E-01
  1.81018216E-01  1.89974572E-01  2.11301931E-01  2.16386320E-01  2.42755945E-01
  2.46402617E-01  2.69609501E-01  3.11770046E-01  3.15443456E-01  3.38435452E-01
  3.43244542E-01  3.45580530E-01  3.92331963E-01  4.47494276E-01  4.85227542E-01
  5.04394680E-01  5.19083719E-01  5.47561247E-01  5.61866541E-01  6.01266509E-01
  6.19883332E-01  6.38983125E-01  6.87672727E-01  7.18192924E-01  7.24428462E-01
  7.44555569E-01  7.62216077E-01  7.67396831E-01  7.96177029E-01  8.06501630E-01
  8.41816410E-01  8.43129559E-01  8.50148474E-01  8.86214137E-01  9.06972455E-01
  9.32478975E-01  9.46074380E-01  9.55248029E-01  1.01706080E+00  1.02820142E+00
  1.05648429E+00  1.06398188E+00  1.09314060E+00  1.14133809E+00  1.15615074E+00
  1.16917318E+00  1.22306201E+00  1.22631330E+00  1.24415453E+00  1.34593090E+00
  1.37148635E+00  1.37560218E+00  1.46887345E+00  1.48686820E+00  1.50785195E+00
  1.53847027E+00  1.59593697E+00  1.59729846E+00  1.60805144E+00  1.62893806E+00
  1.69759108E+00  1.73211300E+00  1.80174323E+00  1.83096224E+00  1.87861769E+00
  1.88902851E+00  1.92542951E+00  1.97967780E+00  1.99066324E+00  2.05114282E+00
  2.12256329E+00  2.12646569E+00  2.16137166E+00  2.18473269E+00  2.24499409E+00
  2.25802860E+00  2.28971806E+00  2.34748889E+00  2.36204742E+00  2.38519377E+00
  2.40031375E+00  2.43102080E+00  2.46926577E+00  2.47786103E+00  2.52745631E+00
  2.53475359E+00  2.55252377E+00  2.55705295E+00  2.61495545E+00  2.62845757E+00
  2.67196154E+00  2.67376573E+00  2.75867030E+00  2.81788071E+00  2.82235827E+00
  2.82699121E+00  2.91882038E+00  2.98416567E+00  3.04600306E+00  3.05146544E+00
  3.11150680E+00  3.11330788E+00  3.16866777E+00  3.20158480E+00  3.30474877E+00
  3.33311231E+00  3.36512723E+00  3.47397717E+00  3.67965692E+00  3.86781163E+00
  3.91470661E+00  4.17920925E+00  4.21998996E+00  4.22870613E+00  4.26729303E+00
  4.37192569E+00  4.50348006E+00  4.51429302E+00  4.55724616E+00  4.58940945E+00
  4.69892197E+00  4.80846118E+00  4.89958225E+00  4.91367312E+00  4.94422256E+00
  5.00441586E+00  5.00648012E+00  5.10581536E+00  5.13431964E+00  5.18275124E+00
  5.24774757E+00  5.26370990E+00  5.31880953E+00  5.32200573E+00  5.36193862E+00
  5.54822651E+00  5.64536363E+00  5.70239798E+00  5.87981868E+00  5.99897042E+00
  6.26505241E+00  6.29097644E+00  6.36360710E+00  6.38468702E+00  6.59221823E+00
  6.65324317E+00  6.66479886E+00  6.68868496E+00  6.72761044E+00  6.80007848E+00
  6.80011541E+00  6.85251419E+00  6.96679997E+00  7.00221008E+00  7.06650499E+00
  7.08658483E+00  7.15200575E+00  7.17204307E+00  7.17542737E+00  7.19932408E+00
  7.24494619E+00  7.24502320E+00  7.26872933E+00  7.34675339E+00  7.38484696E+00
  7.41892886E+00  7.44345949E+00  7.46186867E+00  7.56113365E+00  7.65776900E+00
  7.66420970E+00  7.79131452E+00  7.87521682E+00  7.95085765E+00  8.04830313E+00
  8.29057616E+00  8.50578403E+00  8.65229701E+00  1.36219644E+01  1.47376899E+01
  1.50881851E+01  1.57197784E+01
Alpha MO coefficients                      R   N=       42849
  5.36419032E-05 -3.21491541E-05 -1.12596117E-03  1.22340384E-05 -6.30097241E-05
  4.28604892E-05  0.00000000E+00 -1.27634579E-04 -3.19035789E-04  0.00000000E+00
 -1.60440457E-05 -3.75608814E-04  0.00000000E+00  4.06574044E-05  0.00000000E+00
  0.00000000E+00 -1.99583435E-05 -6.85731892E-06  2.31916787E-04  0.00000000E+00
  0.00000000E+00 -1.88406694E-05 -2.04167725E-04  3.01666391E-03 -9.05330621E-05
 -1.04287343E-04  3.64973344E-03  2.55011024E-03  1.01428505E-04 -5.24945330E-05
  0.00000000E+00 -7.26790793E-04  2.66644278E-04  0.00000000E+00 -2.00435989E-03
  1.12932086E-03  0.00000000E+00 -5.39322267E-04  3.80808133E-05  0.00000000E+00
  2.03016511E-05  0.00000000E+00  0.00000000E+00 -8.93420206E-06  4.73020944E-05
 -4.48687765E-04  0.00000000E+00  0.00000000E+00  4.19552138E-04 -6.81134986E-04
 -3.70622500E-04  0.00000000E+00  0.00000000E+00  5.65476439E-04 -7.65635772E-04
  0.00000000E+00  7.44725673E-05 -5.17543278E-05  0.00000000E+00  0.00000000E+00
 -2.82314525E-05  1.10750887E-04  0.00000000E+00  2.03215324E-04 -5.21808191E-05
  0.00000000E+00  0.00000000E+00 -1.80476628E-04  3.06703730E-04  9.76906962E-01
 -9.16972984E-03  4.34043304E-02  4.36520763E-04 -2.23164013E-03  4.46810765E-04
 -2.14700405E-03  0.00000000E+00 -3.19722911E-04  2.25641110E-03  0.00000000E+00
 -2.37890262E-03 -4.56102504E-04  0.00000000E+00 -2.36832814E-04  1.00195108E-04
  0.00000000E+00  8.25273929E-06  0.00000000E+00  0.00000000E+00 -3.92085154E-06
  4.02355888E-05  8.31048289E-04  0.00000000E+00  0.00000000E+00 -4.81668576E-04
 -1.66142118E-04 -1.35282448E-04  0.00000000E+00  0.00000000E+00 -5.48646307E-04
  3.70306967E-04  0.00000000E+00 -6.17124662E-06 -7.88347487E-05  0.00000000E+00
  0.00000000E+00 -9.69044458E-06  4.82681113E-05  0.00000000E+00  9.26884111E-05
 -5.73531636E-07  0.00000000E+00  0.00000000E+00 -3.36717682E-04  3.85173237E-04
  1.04762615E-04  4.59211559E-04 -3.25021097E-04 -8.15265352E-04  3.39849290E-04
 -4.45964000E-05 -9.96204238E-05  0.00000000E+00  7.01681491E-04  1.11070174E-03
  0.00000000E+00 -7.56130602E-04 -6.95303279E-04  0.00000000E+00  1.97451945E-04
  2.10730563E-04  0.00000000E+00 -5.24360763E-05  0.00000000E+00  0.00000000E+00
  1.96181239E-05  9.30254877E-05 -4.18636326E-04  0.00000000E+00  0.00000000E+00
  4.12065958E-05  1.08282317E-03  2.81460569E-05  0.00000000E+00  0.00000000E+00
 -3.11949543E-04  1.49073181E-05  0.00000000E+00 -7.91733442E-05 -1.13416138E-04
  0.00000000E+00  0.00000000E+00 -9.62777453E-05  1.05836031E-04  0.00000000E+00
 -1.23248375E-04  4.75526506E-05  0.00000000E+00  0.00000000E+00  1.73817211E-05
  5.24787170E-04 -6.71625783E-04  4.99338568E-05 -6.84457610E-05  1.50749152E-04
 -1.97307930E-04 -2.83456236E-05 -4.13260974E-05  0.00000000E+00  1.67899786E-04
  2.53140549E-04  0.00000000E+00  5.20159983E-04  3.01118423E-04  0.00000000E+00
 -2.30424688E-04 -6.46292365E-05  0.00000000E+00 -1.35260724E-05  0.00000000E+00
  0.00000000E+00  4.18397863E-06  1.53985456E-05  6.85267970E-07  0.00000000E+00
  0.00000000E+00 -1.68336055E-04  1.11198998E-05 -2.43090907E-05  0.00000000E+00
  0.00000000E+00 -1.63777233E-04 -4.67421178E-05  0.00000000E+00 -5.51942990E-06
 -9.18813835E-06  0.00000000E+00  0.00000000E+00 -2.27584471E-05  9.74132391E-06
  0.00000000E+00  3.99443738E-05  6.15002540E-05  0.00000000E+00  0.00000000E+00
  1.59617344E-04 -1.06001175E-04  4.47407029E-05  1.27361298E-04 -1.71975246E-04
 -2.96191626E-05  1.14987623E-05  1.08387714E-05  0.00000000E+00  2.25478940E-04
  7.51084007E-05  0.00000000E+00  1.23483487E-04  1.15847567E-05  0.00000000E+00
  1.56544743E-05  0.00000000E+00  0.00000000E+00 -1.82292312E-05  1.33763538E-05
  3.74650231E-05  0.00000000E+00  0.00000000E+00 -1.00433207E-04  4.42348453E-05
 -2.58315050E-04  2.82467714E-05 -1.55257838E-05 -5.31833846E-04  2.03965384E-04
  7.11336689E-06  1.40061608E-05  0.00000000E+00 -5.78516200E-07 -4.41384931E-05
  0.00000000E+00  1.78464165E-04  1.82910652E-04  0.00000000E+00 -5.27768907E-05
  4.33684432E-05  0.00000000E+00 -1.51205018E-06  0.00000000E+00  0.00000000E+00
 -8.23871441E-06 -1.08102801E-05  2.15585599E-05  0.00000000E+00  0.00000000E+00
  4.95652022E-05  1.04281499E-04  6.35287370E-05  0.00000000E+00  0.00000000E+00
 -1.15879055E-05 -1.05072830E-04  0.00000000E+00  8.11181680E-06  1.07631136E-05
  0.00000000E+00  0.00000000E+00 -8.00271904E-07 -2.43412789E-05  0.00000000E+00
 -1.59703848E-05 -3.73252733E-05  0.00000000E+00  0.00000000E+00 -5.75630927E-06
 -1.68666196E-05  7.00738290E-04  2.53932589E-05 -2.00120231E-05  2.62525501E-04
 -4.08179206E-04  1.64731168E-05  2.68361992E-05  0.00000000E+00 -6.51317043E-05
 -1.50799953E-04  0.00000000E+00  1.09924811E-04 -1.93787124E-04  0.00000000E+00
 -1.59070525E-04  1.45289181E-04  0.00000000E+00 -4.13482172E-06  0.00000000E+00
  0.00000000E+00 -2.93778541E-05 -9.78650256E-06 -5.03134493E-05  0.00000000E+00
  0.00000000E+00  7.91948177E-05  1.21269409E-04 -6.24141940E-05  0.00000000E+00
  0.00000000E+00  4.08578098E-05  3.08982840E-05  0.00000000E+00  2.97599515E-06
  3.49496231E-06  0.00000000E+00  0.00000000E+00 -7.82203016E-06 -1.97024205E-06
  0.00000000E+00  4.26156407E-06 -2.55943350E-05  0.00000000E+00  0.00000000E+00
  9.30364164E-05 -1.55150605E-04  2.37439186E-04  1.35911518E-03 -1.48473288E-04
 -6.58400920E-04  9.02528602E-04  6.30909775E-05 -7.07030515E-05  0.00000000E+00
  5.70414299E-04 -2.08525826E-03  0.00000000E+00  1.26802452E-04  4.63478957E-04
  0.00000000E+00  1.85954766E-04 -3.08015725E-04  0.00000000E+00 -1.27696034E-04
  0.00000000E+00  0.00000000E+00 -2.04219436E-04 -1.58501443E-04 -4.62730477E-04
  0.00000000E+00  0.00000000E+00 -6.05539485E-04 -9.14560364E-04 -4.17083110E-05
  0.00000000E+00  0.00000000E+00  6.43672491E-05  1.05111317E-04  0.00000000E+00
  8.19740823E-06  3.69178339E-05  0.00000000E+00  0.00000000E+00 -2.42661766E-05
 -3.91755159E-06  0.00000000E+00 -1.34428995E-04  1.59212794E-04  0.00000000E+00
  0.00000000E+00 -3.13107163E-04 -2.81422505E-05  9.76646801E-01 -9.88587704E-03
  4.35750017E-02  3.65871360E-03 -8.99972797E-04 -4.53450923E-04  2.12944326E-03
  0.00000000E+00  5.13390740E-04 -2.50411437E-03  0.00000000E+00 -5.10620206E-05
  7.91820761E-04  0.00000000E+00  1.02456644E-04 -6.56183100E-05  0.00000000E+00
 -1.94999111E-04  0.00000000E+00  0.00000000E+00 -7.36246903E-05 -4.33829963E-05
  4.09797244E-04  0.00000000E+00  0.00000000E+00  8.58373648E-04  4.82958127E-04
 -2.09371350E-04  0.00000000E+00  0.00000000E+00 -1.26110732E-04 -3.74471083E-05
  0.00000000E+00 -4.10172915E-06  7.03305005E-05  0.00000000E+00  0.00000000E+00
 -3.05963937E-05  1.04697291E-05  0.00000000E+00 -9.03918962E-05  9.27610481E-05
  0.00000000E+00  0.00000000E+00 -1.61508304E-04  2.03825272E-04  3.84072406E-04
  2.15374589E-03  1.17768645E-03 -1.89330861E-05  4.91220852E-05  2.70862855E-04
  0.00000000E+00  3.26260408E-04  1.07378302E-03  0.00000000E+00 -1.00858273E-04
  2.53042779E-04  0.00000000E+00 -2.30264034E-05  0.00000000E+00  0.00000000E+00
  3.63362186E-05 -2.15770064E-05 -1.75072714E-04  0.00000000E+00  0.00000000E+00
 -3.72335649E-04  3.26035177E-04  9.76833519E-01 -9.17339416E-03  4.34729035E-02
  1.09603446E-04 -1.86171238E-03 -2.03162200E-03 -8.69650505E-04  0.00000000E+00
  2.06551063E-03  7.96736705E-04  0.00000000E+00 -4.10682948E-04  7.65453738E-04
  0.00000000E+00  2.11389405E-04 -3.21045918E-04  0.00000000E+00  2.84310229E-05
  0.00000000E+00  0.00000000E+00 -7.97579926E-05  5.53828734E-05  7.74767619E-04
  0.00000000E+00  0.00000000E+00 -1.88015574E-04  3.78287613E-04 -2.33653590E-04
  0.00000000E+00  0.00000000E+00  3.66673916E-04 -4.44991295E-05  0.00000000E+00
 -7.99393026E-05  1.38567779E-06  0.00000000E+00  0.00000000E+00  1.72915707E-05