title                                                                   
Freq      RMP2-FC                                                     Aug-CC-pVTZ         
Number of atoms                            I                5
Info1-9                                    I   N=           9
          33          24           0           0           0         100
           6           2           1
Full Title                                 C   N=           1
title       
Route                                      C   N=           4
#p freq mp2/aug-cc-pvtz density=current         
Charge                                     I                0
Multiplicity                               I                1
Number of electrons                        I               32
Number of alpha electrons                  I               16
Number of beta electrons                   I               16
Number of basis functions                  I              207
Number of independent functions            I              207
Number of point charges in /Mol/           I                0
Number of translation vectors              I                0
Atomic numbers                             I   N=           5
           1           8           8           7           8
Nuclear charges                            R   N=           5
  1.00000000E+00  8.00000000E+00  8.00000000E+00  7.00000000E+00  8.00000000E+00
Current cartesian coordinates              R   N=          15
  1.02122264E+00 -2.15135183E+00  5.39317208E-02  2.41328747E+00 -9.15549731E-01
  5.60761236E-03  1.02587605E+00  1.39607706E+00 -1.98938904E-02 -1.55932149E+00
  1.04115493E+00  2.95149225E-02 -2.20241005E+00 -1.12261891E+00 -1.82807442E-02
Number of symbols in /Mol/                 I                0
Force Field                                I                0
Atom Types                                 C   N=           5
                                                            
Int Atom Types                             I   N=           5
           0           0           0           0           0
MM charges                                 R   N=           5
  0.00000000E+00  0.00000000E+00  0.00000000E+00  0.00000000E+00  0.00000000E+00
Integer atomic weights                     I   N=           5
           1          16          16          14          16
Real atomic weights                        R   N=           5
  1.00782504E+00  1.59949146E+01  1.59949146E+01  1.40030740E+01  1.59949146E+01
Atom fragment info                         I   N=           5
           0           0           0           0           0
Atom residue num                           I   N=           5
           0           0           0           0           0
Nuclear spins                              I   N=           5
           1           0           0           2           0
Nuclear ZEff                               R   N=           5
 -1.00000000E+00 -5.60000000E+00 -5.60000000E+00 -4.55000000E+00 -5.60000000E+00
Nuclear ZNuc                               R   N=           5
  1.00000000E+00  8.00000000E+00  8.00000000E+00  7.00000000E+00  8.00000000E+00
Nuclear QMom                               R   N=           5
  0.00000000E+00  0.00000000E+00  0.00000000E+00  2.04400000E+00  0.00000000E+00
Nuclear GFac                               R   N=           5
  2.79284600E+00  0.00000000E+00  0.00000000E+00  4.03761000E-01  0.00000000E+00
MicOpt                                     I   N=           5
          -1          -1          -1          -1          -1
Number of residues                         I                0
Number of secondary structures             I                0
SymInf integers                            I   N=          26
           1           1           1           1           1           0
           0           0           0           0           0           0
           0           0           0           0           0           0
           0           0           0           0           0           0
           0           0
RotTr to input orientation                 R   N=          12
 -6.63971618E-01  1.62523212E-02  7.47581134E-01  7.47742685E-01  2.07824561E-02
  6.63663293E-01 -4.75050305E-03  9.99651915E-01 -2.59515153E-02  2.28697664E+00
 -2.57998116E-02  6.65726068E-01
Number of contracted shells                I               65
Number of primitive shells                 I              119
Pure/Cartesian d shells                    I                0
Pure/Cartesian f shells                    I                0
Highest angular momentum                   I                3
Largest degree of contraction              I                7
Shell types                                I   N=          65
           0           0           0           0           1           1
           1          -2          -2           0           0           0
           0           0           1           1           1           1
          -2          -2          -2          -3          -3           0
           0           0           0           0           1           1
           1           1          -2          -2          -2          -3
          -3           0           0           0           0           0
           1           1           1           1          -2          -2
          -2          -3          -3           0           0           0
           0           0           1           1           1           1
          -2          -2          -2          -3          -3
Number of primitives per shell             I   N=          65
           3           1           1           1           1           1
           1           1           1           7           6           1
           1           1           3           1           1           1
           1           1           1           1           1           7
           6           1           1           1           3           1
           1           1           1           1           1           1
           1           7           6           1           1           1
           3           1           1           1           1           1
           1           1           1           7           6           1
           1           1           3           1           1           1
           1           1           1           1           1
Shell to atom map                          I   N=          65
           1           1           1           1           1           1
           1           1           1           2           2           2
           2           2           2           2           2           2
           2           2           2           2           2           3
           3           3           3           3           3           3
           3           3           3           3           3           3
           3           4           4           4           4           4
           4           4           4           4           4           4
           4           4           4           5           5           5
           5           5           5           5           5           5
           5           5           5           5           5
Primitive exponents                        R   N=         119
  3.38700000E+01  5.09500000E+00  1.15900000E+00  3.25800000E-01  1.02700000E-01
  2.52600000E-02  1.40700000E+00  3.88000000E-01  1.02000000E-01  1.05700000E+00
  2.47000000E-01  1.53300000E+04  2.29900000E+03  5.22400000E+02  1.47300000E+02
  4.75500000E+01  1.67600000E+01  6.20700000E+00  5.22400000E+02  1.47300000E+02
  4.75500000E+01  1.67600000E+01  6.20700000E+00  6.88200000E-01  1.75200000E+00
  2.38400000E-01  7.37600000E-02  3.44600000E+01  7.74900000E+00  2.28000000E+00
  7.15600000E-01  2.14000000E-01  5.97400000E-02  2.31400000E+00  6.45000000E-01
  2.14000000E-01  1.42800000E+00  5.00000000E-01  1.53300000E+04  2.29900000E+03
  5.22400000E+02  1.47300000E+02  4.75500000E+01  1.67600000E+01  6.20700000E+00
  5.22400000E+02  1.47300000E+02  4.75500000E+01  1.67600000E+01  6.20700000E+00
  6.88200000E-01  1.75200000E+00  2.38400000E-01  7.37600000E-02  3.44600000E+01
  7.74900000E+00  2.28000000E+00  7.15600000E-01  2.14000000E-01  5.97400000E-02
  2.31400000E+00  6.45000000E-01  2.14000000E-01  1.42800000E+00  5.00000000E-01
  1.14200000E+04  1.71200000E+03  3.89300000E+02  1.10000000E+02  3.55700000E+01
  1.25400000E+01  4.64400000E+00  3.89300000E+02  1.10000000E+02  3.55700000E+01
  1.25400000E+01  4.64400000E+00  5.11800000E-01  1.29300000E+00  1.78700000E-01
  5.76000000E-02  2.66300000E+01  5.94800000E+00  1.74200000E+00  5.55000000E-01
  1.72500000E-01  4.91000000E-02  1.65400000E+00  4.69000000E-01  1.51000000E-01
  1.09300000E+00  3.64000000E-01  1.53300000E+04  2.29900000E+03  5.22400000E+02
  1.47300000E+02  4.75500000E+01  1.67600000E+01  6.20700000E+00  5.22400000E+02
  1.47300000E+02  4.75500000E+01  1.67600000E+01  6.20700000E+00  6.88200000E-01
  1.75200000E+00  2.38400000E-01  7.37600000E-02  3.44600000E+01  7.74900000E+00
  2.28000000E+00  7.15600000E-01  2.14000000E-01  5.97400000E-02  2.31400000E+00
  6.45000000E-01  2.14000000E-01  1.42800000E+00  5.00000000E-01
Contraction coefficients                   R   N=         119
  2.54948632E-02  1.90362766E-01  8.52162022E-01  1.00000000E+00  1.00000000E+00
  1.00000000E+00  1.00000000E+00  1.00000000E+00  1.00000000E+00  1.00000000E+00
  1.00000000E+00  5.19808943E-04  4.02025621E-03  2.07128267E-02  8.10105536E-02
  2.35962985E-01  4.42653446E-01  3.57064423E-01 -4.42115008E-05 -1.22591041E-03
 -1.05517725E-02 -6.74452633E-02 -1.71198607E-01  1.07329856E+00  1.00000000E+00
  1.00000000E+00  1.00000000E+00  4.11634896E-02  2.57762836E-01  8.02419274E-01
  1.00000000E+00  1.00000000E+00  1.00000000E+00  1.00000000E+00  1.00000000E+00
  1.00000000E+00  1.00000000E+00  1.00000000E+00  5.19808943E-04  4.02025621E-03
  2.07128267E-02  8.10105536E-02  2.35962985E-01  4.42653446E-01  3.57064423E-01
 -4.42115008E-05 -1.22591041E-03 -1.05517725E-02 -6.74452633E-02 -1.71198607E-01
  1.07329856E+00  1.00000000E+00  1.00000000E+00  1.00000000E+00  4.11634896E-02
  2.57762836E-01  8.02419274E-01  1.00000000E+00  1.00000000E+00  1.00000000E+00
  1.00000000E+00  1.00000000E+00  1.00000000E+00  1.00000000E+00  1.00000000E+00
  5.34563860E-04  4.13435660E-03  2.12335358E-02  8.25006224E-02  2.38138871E-01
  4.42551547E-01  3.53757422E-01 -4.89867350E-05 -1.19527323E-03 -1.03490714E-02
 -6.48680190E-02 -1.71552477E-01  1.07289568E+00  1.00000000E+00  1.00000000E+00
  1.00000000E+00  3.98072123E-02  2.49002660E-01  8.10479727E-01  1.00000000E+00
  1.00000000E+00  1.00000000E+00  1.00000000E+00  1.00000000E+00  1.00000000E+00
  1.00000000E+00  1.00000000E+00  5.19808943E-04  4.02025621E-03  2.07128267E-02
  8.10105536E-02  2.35962985E-01  4.42653446E-01  3.57064423E-01 -4.42115008E-05
 -1.22591041E-03 -1.05517725E-02 -6.74452633E-02 -1.71198607E-01  1.07329856E+00
  1.00000000E+00  1.00000000E+00  1.00000000E+00  4.11634896E-02  2.57762836E-01
  8.02419274E-01  1.00000000E+00  1.00000000E+00  1.00000000E+00  1.00000000E+00
  1.00000000E+00  1.00000000E+00  1.00000000E+00  1.00000000E+00
Coordinates of each shell                  R   N=         195
  1.02122264E+00 -2.15135183E+00  5.39317208E-02  1.02122264E+00 -2.15135183E+00
  5.39317208E-02  1.02122264E+00 -2.15135183E+00  5.39317208E-02  1.02122264E+00
 -2.15135183E+00  5.39317208E-02  1.02122264E+00 -2.15135183E+00  5.39317208E-02
  1.02122264E+00 -2.15135183E+00  5.39317208E-02  1.02122264E+00 -2.15135183E+00
  5.39317208E-02  1.02122264E+00 -2.15135183E+00  5.39317208E-02  1.02122264E+00
 -2.15135183E+00  5.39317208E-02  2.41328747E+00 -9.15549731E-01  5.60761236E-03
  2.41328747E+00 -9.15549731E-01  5.60761236E-03  2.41328747E+00 -9.15549731E-01
  5.60761236E-03  2.41328747E+00 -9.15549731E-01  5.60761236E-03  2.41328747E+00
 -9.15549731E-01  5.60761236E-03  2.41328747E+00 -9.15549731E-01  5.60761236E-03
  2.41328747E+00 -9.15549731E-01  5.60761236E-03  2.41328747E+00 -9.15549731E-01
  5.60761236E-03  2.41328747E+00 -9.15549731E-01  5.60761236E-03  2.41328747E+00
 -9.15549731E-01  5.60761236E-03  2.41328747E+00 -9.15549731E-01  5.60761236E-03
  2.41328747E+00 -9.15549731E-01  5.60761236E-03  2.41328747E+00 -9.15549731E-01
  5.60761236E-03  2.41328747E+00 -9.15549731E-01  5.60761236E-03  1.02587605E+00
  1.39607706E+00 -1.98938904E-02  1.02587605E+00  1.39607706E+00 -1.98938904E-02
  1.02587605E+00  1.39607706E+00 -1.98938904E-02  1.02587605E+00  1.39607706E+00
 -1.98938904E-02  1.02587605E+00  1.39607706E+00 -1.98938904E-02  1.02587605E+00
  1.39607706E+00 -1.98938904E-02  1.02587605E+00  1.39607706E+00 -1.98938904E-02
  1.02587605E+00  1.39607706E+00 -1.98938904E-02  1.02587605E+00  1.39607706E+00
 -1.98938904E-02  1.02587605E+00  1.39607706E+00 -1.98938904E-02  1.02587605E+00
  1.39607706E+00 -1.98938904E-02  1.02587605E+00  1.39607706E+00 -1.98938904E-02
  1.02587605E+00  1.39607706E+00 -1.98938904E-02  1.02587605E+00  1.39607706E+00
 -1.98938904E-02 -1.55932149E+00  1.04115493E+00  2.95149225E-02 -1.55932149E+00
  1.04115493E+00  2.95149225E-02 -1.55932149E+00  1.04115493E+00  2.95149225E-02
 -1.55932149E+00  1.04115493E+00  2.95149225E-02 -1.55932149E+00  1.04115493E+00
  2.95149225E-02 -1.55932149E+00  1.04115493E+00  2.95149225E-02 -1.55932149E+00
  1.04115493E+00  2.95149225E-02 -1.55932149E+00  1.04115493E+00  2.95149225E-02
 -1.55932149E+00  1.04115493E+00  2.95149225E-02 -1.55932149E+00  1.04115493E+00
  2.95149225E-02 -1.55932149E+00  1.04115493E+00  2.95149225E-02 -1.55932149E+00
  1.04115493E+00  2.95149225E-02 -1.55932149E+00  1.04115493E+00  2.95149225E-02
 -1.55932149E+00  1.04115493E+00  2.95149225E-02 -2.20241005E+00 -1.12261891E+00
 -1.82807442E-02 -2.20241005E+00 -1.12261891E+00 -1.82807442E-02 -2.20241005E+00
 -1.12261891E+00 -1.82807442E-02 -2.20241005E+00 -1.12261891E+00 -1.82807442E-02
 -2.20241005E+00 -1.12261891E+00 -1.82807442E-02 -2.20241005E+00 -1.12261891E+00
 -1.82807442E-02 -2.20241005E+00 -1.12261891E+00 -1.82807442E-02 -2.20241005E+00
 -1.12261891E+00 -1.82807442E-02 -2.20241005E+00 -1.12261891E+00 -1.82807442E-02
 -2.20241005E+00 -1.12261891E+00 -1.82807442E-02 -2.20241005E+00 -1.12261891E+00
 -1.82807442E-02 -2.20241005E+00 -1.12261891E+00 -1.82807442E-02 -2.20241005E+00
 -1.12261891E+00 -1.82807442E-02 -2.20241005E+00 -1.12261891E+00 -1.82807442E-02
Num ILSW                                   I              100
ILSW                                       I   N=         100
           0           0           0           0           2           0
           0           0           0           0           0          -1
           5           0           0           0           2           0
           0           0           0           0           1           0
           1           0           0           0           0           0
           0           0      100000           0          -1           0
           0           0           0           0           0           0
           0           0           0           1           1           0
           0 -2000000000           1           0           0           0
           0           0           4          52           0           0
           0           0           0           0           0           0
           0           0           0           5           4           1
           0           0           0           0           0           0
           0           0           0           0           0           0
           0           0           0           0           0           0
           0           0           0           0           0           0
           0           0           0           0
Num RLSW                                   I               52
RLSW                                       R   N=          52
  1.00000000E+00  1.00000000E+00  1.00000000E+00  1.00000000E+00  1.00000000E+00
  0.00000000E+00  0.00000000E+00  1.00000000E+00  0.00000000E+00  0.00000000E+00
  0.00000000E+00  0.00000000E+00  1.00000000E+00  0.00000000E+00  0.00000000E+00
  0.00000000E+00  0.00000000E+00  1.00000000E+00  0.00000000E+00  0.00000000E+00
  0.00000000E+00  0.00000000E+00  1.00000000E+00  0.00000000E+00  0.00000000E+00
  0.00000000E+00  0.00000000E+00  1.00000000E+00  0.00000000E+00  0.00000000E+00
  0.00000000E+00  0.00000000E+00  1.00000000E+00  0.00000000E+00  0.00000000E+00
  0.00000000E+00  0.00000000E+00  0.00000000E+00  1.00000000E+00  1.00000000E+00
  0.00000000E+00  1.00000000E+00  0.00000000E+00  0.00000000E+00  0.00000000E+00
  0.00000000E+00  0.00000000E+00  0.00000000E+00  0.00000000E+00  0.00000000E+00
  0.00000000E+00  0.00000000E+00
MxBond                                     I                2
NBond                                      I   N=           5
           1           2           2           2           1
IBond                                      I   N=          10
           2           0           1           3           2           4
           3           5           4           0
RBond                                      R   N=          10
  1.00000000E+00  0.00000000E+00  1.00000000E+00  1.00000000E+00  1.00000000E+00
  1.00000000E+00  1.00000000E+00  2.00000000E+00  2.00000000E+00  0.00000000E+00
Virial Ratio                               R      2.002226773351967E+00
SCF Energy                                 R     -2.795063349230134E+02
MP2 Energy                                 R     -2.804551036982913E+02
Total Energy                               R     -2.804551036982913E+02
Post-SCF wavefunction norm                 R      1.583719194338943E+00
RMS Force                                  R      1.507085953359563E-03
RMS Density                                R      9.558177762221292E-09
NImag                                      I                0
Job Status                                 I                1
Nuclear derivative order                   I                2
External E-field                           R   N=          35
  0.00000000E+00  0.00000000E+00  0.00000000E+00  0.00000000E+00  0.00000000E+00
  0.00000000E+00  0.00000000E+00  0.00000000E+00  0.00000000E+00  0.00000000E+00
  0.00000000E+00  0.00000000E+00  0.00000000E+00  0.00000000E+00  0.00000000E+00
  0.00000000E+00  0.00000000E+00  0.00000000E+00  0.00000000E+00  0.00000000E+00
  0.00000000E+00  0.00000000E+00  0.00000000E+00  0.00000000E+00  0.00000000E+00
  0.00000000E+00  0.00000000E+00  0.00000000E+00  0.00000000E+00  0.00000000E+00
  0.00000000E+00  0.00000000E+00  0.00000000E+00  0.00000000E+00  0.00000000E+00
IOpCl                                      I                0
IROHF                                      I                0
Alpha Orbital Energies                     R   N=         207
 -2.07197277E+01 -2.06872568E+01 -2.06683244E+01 -1.58259910E+01 -1.64425417E+00
 -1.50516365E+00 -1.29374962E+00 -9.60357260E-01 -8.34588619E-01 -7.58933893E-01
 -7.39915844E-01 -6.37465799E-01 -6.19114946E-01 -6.18020904E-01 -5.04791580E-01
 -4.97336862E-01  3.50544624E-02  6.01603706E-02  9.51181332E-02  1.00377662E-01
  1.19261041E-01  1.22949806E-01  1.49416869E-01  1.52043739E-01  1.77393015E-01
  1.80490487E-01  1.89673412E-01  2.11119351E-01  2.16766426E-01  2.42529946E-01
  2.46330122E-01  2.68921819E-01  3.11799157E-01  3.17578220E-01  3.38059468E-01
  3.43859395E-01  3.46817427E-01  3.92614558E-01  4.48521744E-01  4.87940439E-01
  5.05557356E-01  5.18642409E-01  5.44856878E-01  5.61266475E-01  5.99016675E-01
  6.20317837E-01  6.38375718E-01  6.89767869E-01  7.16882233E-01  7.24594523E-01
  7.43141640E-01  7.63742291E-01  7.67290336E-01  7.95056156E-01  8.06216978E-01
  8.40600168E-01  8.43200374E-01  8.51998676E-01  8.85571337E-01  9.07771213E-01
  9.30103459E-01  9.48522056E-01  9.54188172E-01  1.01792677E+00  1.03279922E+00
  1.06148540E+00  1.06560903E+00  1.09596168E+00  1.14373926E+00  1.15632860E+00
  1.17012854E+00  1.22196903E+00  1.22697690E+00  1.24614483E+00  1.35211607E+00
  1.36219824E+00  1.37123277E+00  1.46849937E+00  1.48586449E+00  1.50473030E+00
  1.54150008E+00  1.59297548E+00  1.59793619E+00  1.60921987E+00  1.62868208E+00
  1.69548475E+00  1.74045640E+00  1.80124992E+00  1.82994441E+00  1.88720535E+00
  1.89708737E+00  1.92956398E+00  1.97908672E+00  1.98944196E+00  2.05226412E+00
  2.12374121E+00  2.13066955E+00  2.16532819E+00  2.18809280E+00  2.24085983E+00
  2.26259283E+00  2.29453443E+00  2.35209857E+00  2.36600444E+00  2.38651705E+00
  2.40221155E+00  2.43367928E+00  2.46825095E+00  2.48010891E+00  2.52873267E+00
  2.53900987E+00  2.54872914E+00  2.55959727E+00  2.61615723E+00  2.63024575E+00
  2.67084903E+00  2.67460115E+00  2.75383294E+00  2.80871094E+00  2.81892226E+00
  2.84172152E+00  2.91864403E+00  2.98520842E+00  3.04667228E+00  3.05103766E+00
  3.11547761E+00  3.11822369E+00  3.17323814E+00  3.21313161E+00  3.30764394E+00
  3.33235666E+00  3.36109242E+00  3.47778188E+00  3.67794954E+00  3.86978114E+00
  3.93034583E+00  4.18300927E+00  4.21995409E+00  4.22854436E+00  4.26901097E+00
  4.36979586E+00  4.50025356E+00  4.52790426E+00  4.55622280E+00  4.59918878E+00
  4.69367219E+00  4.80970516E+00  4.89636462E+00  4.91726383E+00  4.94136328E+00
  4.99805194E+00  5.00612462E+00  5.10826737E+00  5.13304800E+00  5.17951435E+00
  5.24984661E+00  5.25907731E+00  5.31780427E+00  5.34703635E+00  5.35614471E+00
  5.54696373E+00  5.64495928E+00  5.70634574E+00  5.88957276E+00  5.99738629E+00
  6.26452203E+00  6.29595210E+00  6.36104355E+00  6.37668753E+00  6.59826562E+00
  6.65928562E+00  6.65980161E+00  6.69005272E+00  6.72597528E+00  6.79550485E+00
  6.80685799E+00  6.85078702E+00  6.96789952E+00  7.02076328E+00  7.06639766E+00
  7.08047356E+00  7.13872928E+00  7.17262064E+00  7.17781681E+00  7.20343887E+00
  7.24446468E+00  7.24903711E+00  7.27164203E+00  7.34971380E+00  7.39433185E+00
  7.42812501E+00  7.44294304E+00  7.46285126E+00  7.55970102E+00  7.66347996E+00
  7.66750125E+00  7.79442493E+00  7.88290279E+00  7.95283737E+00  8.06401745E+00
  8.30659107E+00  8.49979924E+00  8.65222179E+00  1.36189645E+01  1.47630818E+01
  1.51042160E+01  1.57628569E+01
Alpha MO coefficients                      R   N=       42849
  6.45087145E-05 -2.56291746E-05 -1.11038076E-03  1.28683564E-05 -1.66303314E-05
  6.44516990E-05  6.74932902E-08 -2.42237022E-04 -1.81189728E-04 -7.42329320E-06
 -2.06582900E-04 -2.81222559E-04 -6.89993780E-06  4.25187929E-05  6.74603624E-07
 -1.20567334E-06  4.28255929E-06  2.78359352E-05  2.28405587E-04  6.59421805E-06
 -3.47584795E-06 -2.10843342E-04 -2.44180020E-05  3.07688117E-03 -9.56703711E-05
 -9.91904419E-05  3.54277128E-03  2.47919086E-03  5.12004335E-05 -1.03699515E-04
  1.05757990E-06 -4.18700075E-04  6.61997525E-04 -5.84281043E-06 -9.39009166E-04
  2.06595981E-03 -1.34910236E-05 -4.10141808E-04  3.50544641E-04  2.25957978E-06
  2.04569733E-05  4.97871652E-08  1.79715282E-06  3.94084532E-05  2.17282967E-05
 -4.43064589E-04  4.87775853E-06 -2.03606199E-05 -5.03168662E-04 -6.07036185E-04
 -3.64150792E-04  9.37771439E-06 -1.88781546E-05 -5.43606708E-04 -7.41028912E-04
  2.71221325E-06  2.86283577E-05 -8.60521313E-05  1.84120693E-06  1.53555196E-06
  1.11273263E-04 -8.82755641E-06  3.34484791E-06  1.37505210E-04 -1.63791967E-04
  2.84758783E-06  1.07619825E-05  3.38972635E-04  6.39225598E-05  9.76903685E-01
 -9.17362917E-03  4.34073599E-02  4.93856044E-04 -2.20860856E-03 -9.08935569E-04
 -1.99694069E-03  4.03593669E-05  1.07572149E-03  2.00552742E-03 -4.43971607E-05
 -2.15181290E-03  9.81540195E-04  2.73917045E-05 -1.23146814E-04  2.10922760E-04
 -5.06951516E-06  7.12900040E-06  1.53700632E-06  1.89342161E-06  3.46569770E-05
  1.60321422E-05  8.26967494E-04  1.37418991E-05  1.74819021E-05 -3.05440538E-04
  4.02248490E-04 -1.38647950E-04 -2.41475052E-05 -1.16136236E-05  1.73635478E-04
  6.30828206E-04  4.71187256E-06 -5.19979173E-05 -6.01163460E-05 -8.30491405E-07
  2.23126697E-07  4.84495189E-05 -6.97791869E-06 -1.42984382E-06  7.46123031E-05
 -5.39901746E-05 -5.86745988E-06  3.35882465E-06  4.68615003E-04  1.95049686E-04
  1.04377047E-04  4.57689756E-04 -3.23544419E-04 -8.26125547E-04  3.53479020E-04
 -9.48259137E-05 -5.44161391E-05  2.20434609E-06  1.22016404E-03  4.81968248E-04
 -2.00738164E-05 -1.00554906E-03 -7.78425741E-05 -6.58864932E-06  2.82357947E-04
  5.49439875E-05 -6.82109447E-06 -5.24772185E-05 -2.90399616E-06 -1.13001575E-06
  9.46695059E-05  9.56805909E-06 -4.15156791E-04 -4.17880446E-05 -8.04150540E-06
  1.04277088E-03  2.84172376E-04  2.69149811E-05 -3.14348316E-06  2.78905352E-06
 -6.74803659E-05  3.10490496E-04  5.47918691E-06 -1.30332354E-04 -4.49110938E-05
 -8.46210925E-06 -1.45134020E-06  1.31640452E-04  5.69618573E-05  1.03704465E-05
 -7.17811446E-05  1.11130377E-04 -2.17616321E-05  6.35595373E-06  4.87045334E-04
 -1.82970866E-04 -7.07475309E-04  4.60516329E-05 -7.02984107E-05  2.09576096E-04
 -1.78864837E-04 -4.77600818E-05 -1.62831553E-05  1.66513618E-06  2.85616371E-04
  1.04395528E-04 -9.53191627E-06  6.18841320E-04 -5.34426153E-05  1.59829708E-05
 -2.12236444E-04  7.83447673E-05  6.46273364E-06 -1.29227700E-05 -1.73993892E-06
  4.86390589E-07  1.55357958E-05  1.39895816E-06 -2.33777936E-06  9.24863182E-06
 -4.07153222E-06 -3.92659253E-05  1.59345148E-04 -2.20372248E-05  2.69644998E-05
 -4.09200556E-07 -9.03185455E-05  1.49484194E-04  1.69313570E-06 -1.01569478E-05
 -3.75609570E-06 -1.63784360E-06 -5.09634104E-07  1.58886740E-05  1.72820336E-05
 -8.15970570E-06  6.86124296E-05  2.49835868E-05  8.29409578E-06  7.99353946E-06
 -1.48726817E-04 -1.15028133E-04  4.01741708E-05  6.15549276E-05 -1.20946285E-04
 -2.98503431E-05  2.13618046E-05 -2.20178616E-06  4.25436947E-07  2.28413543E-04
 -9.32008369E-05  1.93760665E-06  1.14214796E-04 -5.60936641E-05  6.10762471E-06
  1.34159195E-05 -1.10962491E-06  1.23644581E-06  1.17420120E-05  1.67027602E-05
  2.24115857E-05  5.56277621E-06  5.79761028E-07  3.07183835E-05  1.10663616E-04
 -2.59148810E-04  2.58317938E-05 -1.52248433E-05 -5.49242596E-04  1.62106116E-04
  1.40339383E-05  6.68354043E-06  3.71903809E-07 -2.52647972E-05 -3.38856538E-05
 -1.73136232E-06  2.25860664E-04 -4.30204025E-06 -3.10339762E-06 -8.57076127E-06
  6.66133955E-05 -5.95169274E-06 -1.39872235E-06  8.34382070E-08 -5.19698369E-07
 -1.36131122E-05  4.45642478E-06  2.09702197E-05  3.74611277E-07  3.84945500E-06
  1.18374442E-04 -1.47887834E-05  6.12748903E-05 -8.51187758E-07  9.69563529E-06
 -8.35338200E-05  4.24135360E-06  4.71395927E-07  1.23348706E-05  3.68968959E-06
 -7.77498291E-07 -4.34305454E-08 -2.31436679E-05  8.98387800E-06 -9.00130693E-07
 -3.24575881E-05 -2.05359301E-05  2.02914602E-06 -2.64871758E-06 -1.75643063E-05
  8.86733741E-06  7.35528718E-04  2.27506975E-05 -1.88518804E-05  2.97368442E-04
 -3.91787256E-04  2.93923320E-05  1.21440786E-05 -3.73078175E-07 -1.43764544E-04
 -8.44166446E-05  9.74939982E-07  3.07601923E-06 -2.54196755E-04  1.30802801E-05
 -4.25425102E-05  2.07443084E-04  5.87473810E-06 -4.06283122E-06  6.24696135E-07
  4.65177112E-07 -1.82113086E-05  2.52374690E-05 -5.13309230E-05 -5.13825686E-06
 -2.32591535E-06  1.40130066E-04 -3.99184074E-05 -6.46951429E-05 -1.51639043E-05
 -3.45786599E-06  3.84965599E-05 -3.23549733E-05  5.07917388E-07  4.38389357E-06
  9.00802293E-07  5.88464484E-07 -6.36908791E-07  3.95397205E-07  8.16780060E-06
 -5.53599418E-06 -1.19649039E-05 -2.24561945E-05  4.04670012E-06  5.13509665E-06
 -1.77357330E-04 -4.03269514E-05  2.37060941E-04  1.35747173E-03 -1.47140400E-04
 -6.90080156E-04  9.03078463E-04  8.82242654E-06 -9.46427044E-05 -2.06836454E-06
 -7.73837375E-04 -2.01660313E-03 -4.18836503E-05  3.84999594E-04  3.32950439E-04
 -2.19774954E-05 -3.24341728E-05 -3.57167098E-04 -7.62233292E-06 -1.27641465E-04
  4.14767448E-06  8.99300533E-06 -2.11949662E-04  1.47529469E-04 -4.59500152E-04
  8.85370126E-06  4.49531566E-05 -1.05735201E-03  3.00977759E-04 -4.18476615E-05
 -1.10861950E-05  2.38211747E-06  1.29202301E-04 -2.25402215E-05  1.03063829E-07
  2.85766855E-05  2.46509586E-05  2.83912799E-06  4.32599600E-07  4.12191575E-06
  2.44575691E-05  1.62925716E-05 -1.52282191E-05  2.06933970E-04  1.54755129E-05
 -5.81635318E-06  7.06825070E-05  3.08636410E-04  9.76646038E-01 -9.88642615E-03
  4.35753831E-02  3.68707864E-03 -8.93673999E-04  9.02020459E-04  1.98210846E-03
  4.76953704E-05 -1.07191466E-03 -2.32189976E-03 -5.30920749E-05  4.27400174E-04
  6.97829718E-04  3.79223083E-05  4.62072149E-05 -1.13826300E-04 -3.23580121E-06
 -1.93749400E-04 -4.16343872E-06  8.97320991E-06 -6.36503176E-05  5.81035872E-05
  4.08547454E-04 -1.86893505E-05 -2.98466061E-05  7.17359179E-04 -6.75692197E-04
 -2.05849525E-04  1.31915604E-05  1.50721894E-05 -7.59072591E-05  1.22618681E-04
  4.01564436E-06  3.78322895E-05  5.93299701E-05  2.33230022E-06 -1.05811029E-06
  1.94156789E-05  2.39878136E-05  3.19351718E-06 -1.76799158E-05  1.26489070E-04
  9.75281898E-06 -7.94282779E-06  2.48047473E-04  8.99950855E-05  3.75212175E-04
  1.99382322E-03  1.37048887E-03 -1.81435370E-05  2.00107836E-04  1.86298140E-04
 -6.34018843E-06  9.14972923E-04  6.01540094E-04 -3.33576807E-05  4.14954755E-05
  2.64514508E-04 -1.82236671E-05 -2.36154740E-05  1.38010595E-06 -1.84956082E-06
 -1.77626351E-05 -3.97486444E-05 -2.15957512E-04 -1.48409930E-05 -8.99279721E-06
  2.82824388E-04  4.52534900E-04  9.76834466E-01 -9.18698659E-03  4.34653152E-02
  1.36509541E-04 -1.90803630E-03 -2.14191241E-03  5.36914552E-04  2.34772591E-05
  2.13477711E-03 -6.10970567E-04 -2.10759865E-05  5.63855509E-05  7.58987231E-04
 -2.14800763E-05  4.05194294E-06 -3.72304546E-04  1.20207754E-05  3.07703301E-05
 -1.43982336E-06  2.35249395E-06  3.80301173E-05  8.99978313E-05  7.65229360E-04
  8.94807638E-06  2.94771286E-05  2.73949164E-04  3.04838429E-04 -2.37858157E-04
  1.48812394E-06 -4.39420232E-06  1.03283548E-04 -3.19419234E-04 -4.31145081E-07
 -6.40048880E-05  4.89828931E-05 -1.71918480E-06 -1.93112762E-06 -4.63407924E-05