title                                                                   
Freq      RMP2-FC                                                     Aug-CC-pVTZ         
Number of atoms                            I                5
Info1-9                                    I   N=           9
          33          24           0           0           0         100
           6           2           1
Full Title                                 C   N=           1
title       
Route                                      C   N=           4
#p freq mp2/aug-cc-pvtz density=current         
Charge                                     I                0
Multiplicity                               I                1
Number of electrons                        I               32
Number of alpha electrons                  I               16
Number of beta electrons                   I               16
Number of basis functions                  I              207
Number of independent functions            I              207
Number of point charges in /Mol/           I                0
Number of translation vectors              I                0
Atomic numbers                             I   N=           5
           1           8           8           7           8
Nuclear charges                            R   N=           5
  1.00000000E+00  8.00000000E+00  8.00000000E+00  7.00000000E+00  8.00000000E+00
Current cartesian coordinates              R   N=          15
  2.03919301E+00 -1.11437659E+00  0.00000000E+00  2.48768298E+00  6.92898512E-01
  0.00000000E+00 -2.85181749E-16  1.73242370E+00  0.00000000E+00 -1.87159346E+00
 -8.65857106E-02  0.00000000E+00 -1.10493783E+00 -2.21026264E+00  0.00000000E+00
Number of symbols in /Mol/                 I                0
Force Field                                I                0
Atom Types                                 C   N=           5
                                                            
Int Atom Types                             I   N=           5
           0           0           0           0           0
MM charges                                 R   N=           5
  0.00000000E+00  0.00000000E+00  0.00000000E+00  0.00000000E+00  0.00000000E+00
Integer atomic weights                     I   N=           5
           1          16          16          14          16
Real atomic weights                        R   N=           5
  1.00782504E+00  1.59949146E+01  1.59949146E+01  1.40030740E+01  1.59949146E+01
Atom fragment info                         I   N=           5
           0           0           0           0           0
Atom residue num                           I   N=           5
           0           0           0           0           0
Nuclear spins                              I   N=           5
           1           0           0           2           0
Nuclear ZEff                               R   N=           5
 -1.00000000E+00 -5.60000000E+00 -5.60000000E+00 -4.55000000E+00 -5.60000000E+00
Nuclear ZNuc                               R   N=           5
  1.00000000E+00  8.00000000E+00  8.00000000E+00  7.00000000E+00  8.00000000E+00
Nuclear QMom                               R   N=           5
  0.00000000E+00  0.00000000E+00  0.00000000E+00  2.04400000E+00  0.00000000E+00
Nuclear GFac                               R   N=           5
  2.79284600E+00  0.00000000E+00  0.00000000E+00  4.03761000E-01  0.00000000E+00
MicOpt                                     I   N=           5
          -1          -1          -1          -1          -1
Number of residues                         I                0
Number of secondary structures             I                0
SymInf integers                            I   N=          26
           1           2           1           1           1           1
           1          -1           0           0           0           0
           0           0           0           0           0           0
           0           0           0           0           0           0
           0           0
RotTr to input orientation                 R   N=          12
 -9.70561669E-01  0.00000000E+00  2.40852748E-01  2.40852748E-01  0.00000000E+00
  9.70561669E-01  0.00000000E+00  1.00000000E+00  0.00000000E+00  2.24756323E+00
  0.00000000E+00  5.90425961E-01
Number of contracted shells                I               65
Number of primitive shells                 I              119
Pure/Cartesian d shells                    I                0
Pure/Cartesian f shells                    I                0
Highest angular momentum                   I                3
Largest degree of contraction              I                7
Shell types                                I   N=          65
           0           0           0           0           1           1
           1          -2          -2           0           0           0
           0           0           1           1           1           1
          -2          -2          -2          -3          -3           0
           0           0           0           0           1           1
           1           1          -2          -2          -2          -3
          -3           0           0           0           0           0
           1           1           1           1          -2          -2
          -2          -3          -3           0           0           0
           0           0           1           1           1           1
          -2          -2          -2          -3          -3
Number of primitives per shell             I   N=          65
           3           1           1           1           1           1
           1           1           1           7           6           1
           1           1           3           1           1           1
           1           1           1           1           1           7
           6           1           1           1           3           1
           1           1           1           1           1           1
           1           7           6           1           1           1
           3           1           1           1           1           1
           1           1           1           7           6           1
           1           1           3           1           1           1
           1           1           1           1           1
Shell to atom map                          I   N=          65
           1           1           1           1           1           1
           1           1           1           2           2           2
           2           2           2           2           2           2
           2           2           2           2           2           3
           3           3           3           3           3           3
           3           3           3           3           3           3
           3           4           4           4           4           4
           4           4           4           4           4           4
           4           4           4           5           5           5
           5           5           5           5           5           5
           5           5           5           5           5
Primitive exponents                        R   N=         119
  3.38700000E+01  5.09500000E+00  1.15900000E+00  3.25800000E-01  1.02700000E-01
  2.52600000E-02  1.40700000E+00  3.88000000E-01  1.02000000E-01  1.05700000E+00
  2.47000000E-01  1.53300000E+04  2.29900000E+03  5.22400000E+02  1.47300000E+02
  4.75500000E+01  1.67600000E+01  6.20700000E+00  5.22400000E+02  1.47300000E+02
  4.75500000E+01  1.67600000E+01  6.20700000E+00  6.88200000E-01  1.75200000E+00
  2.38400000E-01  7.37600000E-02  3.44600000E+01  7.74900000E+00  2.28000000E+00
  7.15600000E-01  2.14000000E-01  5.97400000E-02  2.31400000E+00  6.45000000E-01
  2.14000000E-01  1.42800000E+00  5.00000000E-01  1.53300000E+04  2.29900000E+03
  5.22400000E+02  1.47300000E+02  4.75500000E+01  1.67600000E+01  6.20700000E+00
  5.22400000E+02  1.47300000E+02  4.75500000E+01  1.67600000E+01  6.20700000E+00
  6.88200000E-01  1.75200000E+00  2.38400000E-01  7.37600000E-02  3.44600000E+01
  7.74900000E+00  2.28000000E+00  7.15600000E-01  2.14000000E-01  5.97400000E-02
  2.31400000E+00  6.45000000E-01  2.14000000E-01  1.42800000E+00  5.00000000E-01
  1.14200000E+04  1.71200000E+03  3.89300000E+02  1.10000000E+02  3.55700000E+01
  1.25400000E+01  4.64400000E+00  3.89300000E+02  1.10000000E+02  3.55700000E+01
  1.25400000E+01  4.64400000E+00  5.11800000E-01  1.29300000E+00  1.78700000E-01
  5.76000000E-02  2.66300000E+01  5.94800000E+00  1.74200000E+00  5.55000000E-01
  1.72500000E-01  4.91000000E-02  1.65400000E+00  4.69000000E-01  1.51000000E-01
  1.09300000E+00  3.64000000E-01  1.53300000E+04  2.29900000E+03  5.22400000E+02
  1.47300000E+02  4.75500000E+01  1.67600000E+01  6.20700000E+00  5.22400000E+02
  1.47300000E+02  4.75500000E+01  1.67600000E+01  6.20700000E+00  6.88200000E-01
  1.75200000E+00  2.38400000E-01  7.37600000E-02  3.44600000E+01  7.74900000E+00
  2.28000000E+00  7.15600000E-01  2.14000000E-01  5.97400000E-02  2.31400000E+00
  6.45000000E-01  2.14000000E-01  1.42800000E+00  5.00000000E-01
Contraction coefficients                   R   N=         119
  2.54948632E-02  1.90362766E-01  8.52162022E-01  1.00000000E+00  1.00000000E+00
  1.00000000E+00  1.00000000E+00  1.00000000E+00  1.00000000E+00  1.00000000E+00
  1.00000000E+00  5.19808943E-04  4.02025621E-03  2.07128267E-02  8.10105536E-02
  2.35962985E-01  4.42653446E-01  3.57064423E-01 -4.42115008E-05 -1.22591041E-03
 -1.05517725E-02 -6.74452633E-02 -1.71198607E-01  1.07329856E+00  1.00000000E+00
  1.00000000E+00  1.00000000E+00  4.11634896E-02  2.57762836E-01  8.02419274E-01
  1.00000000E+00  1.00000000E+00  1.00000000E+00  1.00000000E+00  1.00000000E+00
  1.00000000E+00  1.00000000E+00  1.00000000E+00  5.19808943E-04  4.02025621E-03
  2.07128267E-02  8.10105536E-02  2.35962985E-01  4.42653446E-01  3.57064423E-01
 -4.42115008E-05 -1.22591041E-03 -1.05517725E-02 -6.74452633E-02 -1.71198607E-01
  1.07329856E+00  1.00000000E+00  1.00000000E+00  1.00000000E+00  4.11634896E-02
  2.57762836E-01  8.02419274E-01  1.00000000E+00  1.00000000E+00  1.00000000E+00
  1.00000000E+00  1.00000000E+00  1.00000000E+00  1.00000000E+00  1.00000000E+00
  5.34563860E-04  4.13435660E-03  2.12335358E-02  8.25006224E-02  2.38138871E-01
  4.42551547E-01  3.53757422E-01 -4.89867350E-05 -1.19527323E-03 -1.03490714E-02
 -6.48680190E-02 -1.71552477E-01  1.07289568E+00  1.00000000E+00  1.00000000E+00
  1.00000000E+00  3.98072123E-02  2.49002660E-01  8.10479727E-01  1.00000000E+00
  1.00000000E+00  1.00000000E+00  1.00000000E+00  1.00000000E+00  1.00000000E+00
  1.00000000E+00  1.00000000E+00  5.19808943E-04  4.02025621E-03  2.07128267E-02
  8.10105536E-02  2.35962985E-01  4.42653446E-01  3.57064423E-01 -4.42115008E-05
 -1.22591041E-03 -1.05517725E-02 -6.74452633E-02 -1.71198607E-01  1.07329856E+00
  1.00000000E+00  1.00000000E+00  1.00000000E+00  4.11634896E-02  2.57762836E-01
  8.02419274E-01  1.00000000E+00  1.00000000E+00  1.00000000E+00  1.00000000E+00
  1.00000000E+00  1.00000000E+00  1.00000000E+00  1.00000000E+00
Coordinates of each shell                  R   N=         195
  2.03919301E+00 -1.11437659E+00  0.00000000E+00  2.03919301E+00 -1.11437659E+00
  0.00000000E+00  2.03919301E+00 -1.11437659E+00  0.00000000E+00  2.03919301E+00
 -1.11437659E+00  0.00000000E+00  2.03919301E+00 -1.11437659E+00  0.00000000E+00
  2.03919301E+00 -1.11437659E+00  0.00000000E+00  2.03919301E+00 -1.11437659E+00
  0.00000000E+00  2.03919301E+00 -1.11437659E+00  0.00000000E+00  2.03919301E+00
 -1.11437659E+00  0.00000000E+00  2.48768298E+00  6.92898512E-01  0.00000000E+00
  2.48768298E+00  6.92898512E-01  0.00000000E+00  2.48768298E+00  6.92898512E-01
  0.00000000E+00  2.48768298E+00  6.92898512E-01  0.00000000E+00  2.48768298E+00
  6.92898512E-01  0.00000000E+00  2.48768298E+00  6.92898512E-01  0.00000000E+00
  2.48768298E+00  6.92898512E-01  0.00000000E+00  2.48768298E+00  6.92898512E-01
  0.00000000E+00  2.48768298E+00  6.92898512E-01  0.00000000E+00  2.48768298E+00
  6.92898512E-01  0.00000000E+00  2.48768298E+00  6.92898512E-01  0.00000000E+00
  2.48768298E+00  6.92898512E-01  0.00000000E+00  2.48768298E+00  6.92898512E-01
  0.00000000E+00  2.48768298E+00  6.92898512E-01  0.00000000E+00 -2.23584979E-17
  1.73242370E+00  0.00000000E+00 -2.23584979E-17  1.73242370E+00  0.00000000E+00
 -2.23584979E-17  1.73242370E+00  0.00000000E+00 -2.23584979E-17  1.73242370E+00
  0.00000000E+00 -2.23584979E-17  1.73242370E+00  0.00000000E+00 -2.23584979E-17
  1.73242370E+00  0.00000000E+00 -2.23584979E-17  1.73242370E+00  0.00000000E+00
 -2.23584979E-17  1.73242370E+00  0.00000000E+00 -2.23584979E-17  1.73242370E+00
  0.00000000E+00 -2.23584979E-17  1.73242370E+00  0.00000000E+00 -2.23584979E-17
  1.73242370E+00  0.00000000E+00 -2.23584979E-17  1.73242370E+00  0.00000000E+00
 -2.23584979E-17  1.73242370E+00  0.00000000E+00 -2.23584979E-17  1.73242370E+00
  0.00000000E+00 -1.87159346E+00 -8.65857106E-02  0.00000000E+00 -1.87159346E+00
 -8.65857106E-02  0.00000000E+00 -1.87159346E+00 -8.65857106E-02  0.00000000E+00
 -1.87159346E+00 -8.65857106E-02  0.00000000E+00 -1.87159346E+00 -8.65857106E-02
  0.00000000E+00 -1.87159346E+00 -8.65857106E-02  0.00000000E+00 -1.87159346E+00
 -8.65857106E-02  0.00000000E+00 -1.87159346E+00 -8.65857106E-02  0.00000000E+00
 -1.87159346E+00 -8.65857106E-02  0.00000000E+00 -1.87159346E+00 -8.65857106E-02
  0.00000000E+00 -1.87159346E+00 -8.65857106E-02  0.00000000E+00 -1.87159346E+00
 -8.65857106E-02  0.00000000E+00 -1.87159346E+00 -8.65857106E-02  0.00000000E+00
 -1.87159346E+00 -8.65857106E-02  0.00000000E+00 -1.10493783E+00 -2.21026264E+00
  0.00000000E+00 -1.10493783E+00 -2.21026264E+00  0.00000000E+00 -1.10493783E+00
 -2.21026264E+00  0.00000000E+00 -1.10493783E+00 -2.21026264E+00  0.00000000E+00
 -1.10493783E+00 -2.21026264E+00  0.00000000E+00 -1.10493783E+00 -2.21026264E+00
  0.00000000E+00 -1.10493783E+00 -2.21026264E+00  0.00000000E+00 -1.10493783E+00
 -2.21026264E+00  0.00000000E+00 -1.10493783E+00 -2.21026264E+00  0.00000000E+00
 -1.10493783E+00 -2.21026264E+00  0.00000000E+00 -1.10493783E+00 -2.21026264E+00
  0.00000000E+00 -1.10493783E+00 -2.21026264E+00  0.00000000E+00 -1.10493783E+00
 -2.21026264E+00  0.00000000E+00 -1.10493783E+00 -2.21026264E+00  0.00000000E+00
Num ILSW                                   I              100
ILSW                                       I   N=         100
           0           0           0           0           2           0
           0           0           0           0           0          -1
           5           0           0           0           2           0
           0           0           0           0           1           0
           1           0           0           0           0           0
           0           0      100000           0          -1           0
           0           0           0           0           0           0
           0           0           0           1           1           0
           0 -2000000000           1           0           0           0
           0           0           4          52           0           0
           0           0           0           0           0           0
           0           0           0           5           4           1
           0           0           0           0           0           0
           0           0           0           0           0           0
           0           0           0           0           0           0
           0           0           0           0           0           0
           0           0           0           0
Num RLSW                                   I               52
RLSW                                       R   N=          52
  1.00000000E+00  1.00000000E+00  1.00000000E+00  1.00000000E+00  1.00000000E+00
  0.00000000E+00  0.00000000E+00  1.00000000E+00  0.00000000E+00  0.00000000E+00
  0.00000000E+00  0.00000000E+00  1.00000000E+00  0.00000000E+00  0.00000000E+00
  0.00000000E+00  0.00000000E+00  1.00000000E+00  0.00000000E+00  0.00000000E+00
  0.00000000E+00  0.00000000E+00  1.00000000E+00  0.00000000E+00  0.00000000E+00
  0.00000000E+00  0.00000000E+00  1.00000000E+00  0.00000000E+00  0.00000000E+00
  0.00000000E+00  0.00000000E+00  1.00000000E+00  0.00000000E+00  0.00000000E+00
  0.00000000E+00  0.00000000E+00  0.00000000E+00  1.00000000E+00  1.00000000E+00
  0.00000000E+00  1.00000000E+00  0.00000000E+00  0.00000000E+00  0.00000000E+00
  0.00000000E+00  0.00000000E+00  0.00000000E+00  0.00000000E+00  0.00000000E+00
  0.00000000E+00  0.00000000E+00
MxBond                                     I                2
NBond                                      I   N=           5
           1           2           2           2           1
IBond                                      I   N=          10
           2           0           1           3           2           4
           3           5           4           0
RBond                                      R   N=          10
  1.00000000E+00  0.00000000E+00  1.00000000E+00  1.00000000E+00  1.00000000E+00
  1.00000000E+00  1.00000000E+00  2.00000000E+00  2.00000000E+00  0.00000000E+00
Virial Ratio                               R      2.002195588266944E+00
SCF Energy                                 R     -2.795058755282621E+02
MP2 Energy                                 R     -2.804551022897034E+02
Total Energy                               R     -2.804551022897034E+02
Post-SCF wavefunction norm                 R      1.583816544736342E+00
RMS Force                                  R      1.795075052760581E-03
RMS Density                                R      4.493732672974441E-09
NImag                                      I                0
Job Status                                 I                1
Nuclear derivative order                   I                2
External E-field                           R   N=          35
  0.00000000E+00  0.00000000E+00  0.00000000E+00  0.00000000E+00  0.00000000E+00
  0.00000000E+00  0.00000000E+00  0.00000000E+00  0.00000000E+00  0.00000000E+00
  0.00000000E+00  0.00000000E+00  0.00000000E+00  0.00000000E+00  0.00000000E+00
  0.00000000E+00  0.00000000E+00  0.00000000E+00  0.00000000E+00  0.00000000E+00
  0.00000000E+00  0.00000000E+00  0.00000000E+00  0.00000000E+00  0.00000000E+00
  0.00000000E+00  0.00000000E+00  0.00000000E+00  0.00000000E+00  0.00000000E+00
  0.00000000E+00  0.00000000E+00  0.00000000E+00  0.00000000E+00  0.00000000E+00
IOpCl                                      I                0
IROHF                                      I                0
Alpha Orbital Energies                     R   N=         207
 -2.07196077E+01 -2.06884262E+01 -2.06686737E+01 -1.58269701E+01 -1.64583846E+00
 -1.50624950E+00 -1.29390089E+00 -9.60331497E-01 -8.36384078E-01 -7.59676987E-01
 -7.40710419E-01 -6.38104805E-01 -6.19190761E-01 -6.18827748E-01 -5.05943707E-01
 -4.97705731E-01  3.54176548E-02  5.94361112E-02  9.50046772E-02  1.00293362E-01
  1.19349246E-01  1.22609125E-01  1.49307978E-01  1.53019348E-01  1.77355812E-01
  1.79725413E-01  1.89611581E-01  2.10799782E-01  2.16982696E-01  2.42246463E-01
  2.46306152E-01  2.68514926E-01  3.13636285E-01  3.17970435E-01  3.37672248E-01
  3.43993095E-01  3.48245337E-01  3.92806716E-01  4.50069875E-01  4.91656402E-01
  5.05687594E-01  5.18066587E-01  5.42765676E-01  5.60461525E-01  5.97082425E-01
  6.20757110E-01  6.38601028E-01  6.91317637E-01  7.16057165E-01  7.23865561E-01
  7.41945301E-01  7.64947683E-01  7.67018709E-01  7.95579363E-01  8.06349871E-01
  8.37501313E-01  8.43218926E-01  8.53085721E-01  8.84968191E-01  9.08316592E-01
  9.28980982E-01  9.49310503E-01  9.53091628E-01  1.01958455E+00  1.03585937E+00
  1.06761320E+00  1.06945861E+00  1.09707022E+00  1.14617574E+00  1.15612714E+00
  1.16968840E+00  1.22149534E+00  1.22825365E+00  1.24893591E+00  1.34902349E+00
  1.36057772E+00  1.36994460E+00  1.46837495E+00  1.48431397E+00  1.50232686E+00
  1.54652914E+00  1.59724134E+00  1.59791607E+00  1.60329685E+00  1.62955247E+00
  1.69421800E+00  1.74864128E+00  1.80044790E+00  1.82885854E+00  1.88761971E+00
  1.90958840E+00  1.93388309E+00  1.97891890E+00  1.98824533E+00  2.05296801E+00
  2.12549974E+00  2.13412016E+00  2.16942691E+00  2.19128461E+00  2.24231909E+00
  2.26065879E+00  2.29768677E+00  2.35644940E+00  2.36789930E+00  2.38991859E+00
  2.40398192E+00  2.43606615E+00  2.46958318E+00  2.48050704E+00  2.53120635E+00
  2.54162233E+00  2.54783482E+00  2.56094397E+00  2.61690615E+00  2.63219403E+00
  2.67212860E+00  2.67530903E+00  2.75228449E+00  2.80303130E+00  2.81230583E+00
  2.85182302E+00  2.91717958E+00  2.98627351E+00  3.04789322E+00  3.05034582E+00
  3.11769983E+00  3.12443555E+00  3.17953908E+00  3.22361640E+00  3.31306393E+00
  3.33158601E+00  3.35740902E+00  3.48379664E+00  3.67736838E+00  3.87103101E+00
  3.94391700E+00  4.18935463E+00  4.22138566E+00  4.22685542E+00  4.26880082E+00
  4.36797366E+00  4.49748408E+00  4.53160299E+00  4.55490961E+00  4.61233165E+00
  4.68999849E+00  4.81270840E+00  4.89785422E+00  4.91532366E+00  4.93706192E+00
  4.99865861E+00  5.00479587E+00  5.10830345E+00  5.13341968E+00  5.17663816E+00
  5.25393711E+00  5.25424225E+00  5.31822244E+00  5.34425934E+00  5.37914957E+00
  5.54580924E+00  5.64435519E+00  5.71018145E+00  5.89644312E+00  5.99581459E+00
  6.26505395E+00  6.30001761E+00  6.35474509E+00  6.37409548E+00  6.60263330E+00
  6.65369390E+00  6.66424460E+00  6.69234257E+00  6.72442257E+00  6.79407327E+00
  6.80810718E+00  6.85003021E+00  6.96895715E+00  7.03649026E+00  7.06640004E+00
  7.07472626E+00  7.12713008E+00  7.17516104E+00  7.18049785E+00  7.20701976E+00
  7.24723270E+00  7.25071400E+00  7.27321905E+00  7.35146778E+00  7.40251178E+00
  7.43684838E+00  7.44129470E+00  7.46507462E+00  7.55944054E+00  7.66311654E+00
  7.67771987E+00  7.79717190E+00  7.89035766E+00  7.95240109E+00  8.08228127E+00
  8.32195571E+00  8.49526696E+00  8.65204110E+00  1.36242279E+01  1.47877003E+01
  1.51211333E+01  1.58108348E+01
Alpha MO coefficients                      R   N=       42849
  7.06650430E-05 -6.36681621E-06 -1.07613432E-03  1.32220046E-05 -4.00317307E-05
  4.00109555E-05  0.00000000E+00 -5.78631685E-05 -2.56739935E-04  0.00000000E+00
  1.17822404E-05 -3.22929033E-04  0.00000000E+00  4.18573993E-05  0.00000000E+00
  0.00000000E+00 -2.84063515E-05  2.86300372E-05  2.21773017E-04  0.00000000E+00
  0.00000000E+00 -5.92316410E-05 -2.09958189E-04  3.10627655E-03 -1.01812011E-04
 -9.56426201E-05  3.43756016E-03  2.40300151E-03  1.03620348E-04 -5.43133729E-05
  0.00000000E+00 -7.29823458E-04  3.06344228E-04  0.00000000E+00 -1.95277118E-03
  1.09768480E-03  0.00000000E+00 -5.33314506E-04  4.19289859E-05  0.00000000E+00
  2.07458253E-05  0.00000000E+00  0.00000000E+00 -8.88338555E-06  4.13579864E-05
 -4.38419384E-04  0.00000000E+00  0.00000000E+00  4.37460622E-04 -6.48281020E-04
 -3.57930773E-04  0.00000000E+00  0.00000000E+00  5.25382624E-04 -7.20067078E-04
  0.00000000E+00  7.36491229E-05 -5.31615913E-05  0.00000000E+00  0.00000000E+00
 -2.76711730E-05  1.05709288E-04  0.00000000E+00  2.11687734E-04 -4.92534861E-05
  0.00000000E+00  0.00000000E+00 -1.61982605E-04  2.94376209E-04  9.76901182E-01
 -9.17776993E-03  4.34093561E-02  5.48541651E-04 -2.18600920E-03  4.51461239E-04
 -2.14892095E-03  0.00000000E+00 -3.19974459E-04  2.25168615E-03  0.00000000E+00
 -2.26299628E-03 -5.09423035E-04  0.00000000E+00 -2.10750288E-04  9.40077219E-05
  0.00000000E+00  6.20328473E-06  0.00000000E+00  0.00000000E+00 -5.70482277E-06
  3.57665089E-05  8.23841263E-04  0.00000000E+00  0.00000000E+00 -4.69206519E-04
 -1.75335591E-04 -1.42523294E-04  0.00000000E+00  0.00000000E+00 -5.52784395E-04
  3.42655499E-04  0.00000000E+00 -6.58084690E-06 -7.98746562E-05  0.00000000E+00
  0.00000000E+00 -8.51943918E-06  4.79412930E-05  0.00000000E+00  9.19883585E-05
  2.10012359E-06  0.00000000E+00  0.00000000E+00 -3.36235830E-04  3.76879787E-04
  1.04109097E-04  4.56487499E-04 -3.22389065E-04 -8.50407329E-04  3.70446924E-04
 -4.38717348E-05 -1.00355987E-04  0.00000000E+00  6.93842665E-04  1.11164960E-03
  0.00000000E+00 -7.81141184E-04 -6.24608172E-04  0.00000000E+00  1.94166228E-04
  2.13671078E-04  0.00000000E+00 -5.24676449E-05  0.00000000E+00  0.00000000E+00
  1.87529352E-05  9.34954161E-05 -4.13664621E-04  0.00000000E+00  0.00000000E+00
  3.90518191E-05  1.07989858E-03  2.56382282E-05  0.00000000E+00  0.00000000E+00
 -3.23502825E-04  4.25304971E-05  0.00000000E+00 -7.81124915E-05 -1.13797131E-04
  0.00000000E+00  0.00000000E+00 -9.66974774E-05  1.06454534E-04  0.00000000E+00
 -1.25471203E-04  4.64252939E-05  0.00000000E+00  0.00000000E+00  1.32642083E-05
  5.17886290E-04 -7.38753515E-04  4.30405349E-05 -7.23482758E-05  2.68150370E-04
 -1.68628503E-04 -2.96868383E-05 -4.15823619E-05  0.00000000E+00  1.71325494E-04
  2.53811855E-04  0.00000000E+00  5.36574454E-04  3.50714599E-04  0.00000000E+00
 -2.08224378E-04 -6.22810432E-05  0.00000000E+00 -1.25676892E-05  0.00000000E+00
  0.00000000E+00  2.86856355E-06  1.50702413E-05 -4.51589755E-06  0.00000000E+00
  0.00000000E+00 -1.61348285E-04  9.86889693E-06 -1.84594037E-05  0.00000000E+00
  0.00000000E+00 -1.81429979E-04 -3.68512549E-05  0.00000000E+00 -6.46506678E-06
 -9.03577494E-06  0.00000000E+00  0.00000000E+00 -2.00924095E-05  9.35172224E-06
  0.00000000E+00  4.11228727E-05  6.04255461E-05  0.00000000E+00  0.00000000E+00
  1.53718002E-04 -1.02707066E-04  3.42620809E-05  1.06819345E-05 -4.40521073E-05
 -3.02254916E-05  2.53881624E-05  1.19831051E-05  0.00000000E+00  2.48092714E-04
  4.58996366E-05  0.00000000E+00  1.25621675E-04  3.64658016E-05  0.00000000E+00
  9.96936481E-06  0.00000000E+00  0.00000000E+00 -5.75035764E-06  2.01200216E-05
  4.51200001E-06  0.00000000E+00  0.00000000E+00 -9.07286976E-05  8.56662623E-05
 -2.57500445E-04  2.33660188E-05 -1.44359177E-05 -5.82749929E-04  1.08365767E-04
  7.69343718E-06  1.30658024E-05  0.00000000E+00 -8.80423459E-07 -3.81493316E-05
  0.00000000E+00  1.87393704E-04  8.52993871E-05  0.00000000E+00 -3.75144269E-05
  5.54191101E-05  0.00000000E+00 -1.45156584E-06  0.00000000E+00  0.00000000E+00
 -8.40982017E-06 -1.25991918E-05  2.19090489E-05  0.00000000E+00  0.00000000E+00
  5.16005284E-05  1.13928476E-04  6.04815736E-05  0.00000000E+00  0.00000000E+00
 -4.37367971E-05 -4.99827829E-05  0.00000000E+00  7.51919146E-06  9.58957268E-06
  0.00000000E+00  0.00000000E+00 -1.19318730E-06 -2.58686665E-05  0.00000000E+00
 -1.25535966E-05 -3.49785496E-05  0.00000000E+00  0.00000000E+00  2.75848721E-07
 -2.27244496E-05  7.65877328E-04  1.98065312E-05 -1.80223380E-05  3.32092017E-04
 -3.75944895E-04  1.64824313E-05  2.76314403E-05  0.00000000E+00 -6.61677482E-05
 -1.55808102E-04  0.00000000E+00  1.96146795E-04 -2.13751499E-04  0.00000000E+00
 -1.54831593E-04  1.39222097E-04  0.00000000E+00 -3.95760484E-06  0.00000000E+00
  0.00000000E+00 -2.96664055E-05 -9.99399096E-06 -5.27267280E-05  0.00000000E+00
  0.00000000E+00  8.07864594E-05  1.22675830E-04 -6.83566555E-05  0.00000000E+00
  0.00000000E+00  4.31737532E-05  2.48891639E-05  0.00000000E+00  3.01180227E-06
  3.13946929E-06  0.00000000E+00  0.00000000E+00 -7.96055893E-06 -2.69656659E-06
  0.00000000E+00  3.32112234E-06 -2.43766860E-05  0.00000000E+00  0.00000000E+00
  9.92832778E-05 -1.54005733E-04  2.36796945E-04  1.35631169E-03 -1.46075678E-04
 -7.27182770E-04  9.10128798E-04  6.32275420E-05 -7.12297131E-05  0.00000000E+00
  5.72310419E-04 -2.08264938E-03  0.00000000E+00  9.78466101E-05  5.32770273E-04
  0.00000000E+00  1.86359483E-04 -3.06375191E-04  0.00000000E+00 -1.27814582E-04
  0.00000000E+00  0.00000000E+00 -2.03947865E-04 -1.58367181E-04 -4.58607963E-04
  0.00000000E+00  0.00000000E+00 -6.00658145E-04 -9.25613029E-04 -4.30591599E-05
  0.00000000E+00  0.00000000E+00  5.52586297E-05  1.29641384E-04  0.00000000E+00
  8.59632713E-06  3.68868298E-05  0.00000000E+00  0.00000000E+00 -2.45148674E-05
 -4.44767080E-06  0.00000000E+00 -1.36422191E-04  1.57106888E-04  0.00000000E+00
  0.00000000E+00 -3.17583155E-04 -3.88364135E-05  9.76645571E-01 -9.88502956E-03
  4.35756961E-02  3.71029098E-03 -8.95974039E-04 -4.42858263E-04  2.13403614E-03
  0.00000000E+00  5.12636481E-04 -2.50825444E-03  0.00000000E+00 -9.68922356E-05
  8.38906103E-04  0.00000000E+00  1.06013721E-04 -6.47828172E-05  0.00000000E+00
 -1.93093967E-04  0.00000000E+00  0.00000000E+00 -7.47691551E-05 -4.35830172E-05
  4.08783667E-04  0.00000000E+00  0.00000000E+00  8.59147460E-04  4.84624908E-04
 -2.01439804E-04  0.00000000E+00  0.00000000E+00 -1.56379353E-04 -3.70311820E-05
  0.00000000E+00 -5.61727538E-06  7.03157960E-05  0.00000000E+00  0.00000000E+00
 -2.73981657E-05  1.08440922E-05  0.00000000E+00 -8.71847615E-05  9.09125929E-05
  0.00000000E+00  0.00000000E+00 -1.71336029E-04  2.05684869E-04  3.67957318E-04
  1.85367545E-03  1.55198797E-03 -1.86634531E-05  5.18472224E-05  2.66426661E-04
  0.00000000E+00  4.24622359E-04  9.89268787E-04  0.00000000E+00 -1.51396260E-04
  2.23425788E-04  0.00000000E+00 -2.36223693E-05  0.00000000E+00  0.00000000E+00
  2.79087577E-05 -3.61015703E-05 -2.54395667E-04  0.00000000E+00  0.00000000E+00
 -3.27185791E-04  4.73008479E-04  9.76834539E-01 -9.20103682E-03  4.34598311E-02
  1.45900382E-04 -1.95168249E-03 -2.05453099E-03 -8.04693084E-04  0.00000000E+00
  2.09651842E-03  7.49399766E-04  0.00000000E+00 -3.88467296E-04  5.42045895E-04
  0.00000000E+00  2.37850737E-04 -2.82325810E-04  0.00000000E+00  3.25524302E-05
  0.00000000E+00  0.00000000E+00 -6.95055713E-05  6.96537366E-05  7.58598504E-04
  0.00000000E+00  0.00000000E+00 -2.29669681E-04  3.32503701E-04 -2.42094791E-04
  0.00000000E+00  0.00000000E+00  3.07935780E-04  4.27276502E-05  0.00000000E+00
 -8.11437460E-05  1.95277486E-06  0.00000000E+00  0.00000000E+00  1.47582030E-05