title                                                                   
Freq      RMP2-FC                                                     Aug-CC-pVTZ         
Number of atoms                            I                5
Info1-9                                    I   N=           9
          33          24           0           0           0         100
           6           2           1
Full Title                                 C   N=           1
title       
Route                                      C   N=           4
#p freq mp2/aug-cc-pvtz density=current         
Charge                                     I                0
Multiplicity                               I                1
Number of electrons                        I               32
Number of alpha electrons                  I               16
Number of beta electrons                   I               16
Number of basis functions                  I              207
Number of independent functions            I              207
Number of point charges in /Mol/           I                0
Number of translation vectors              I                0
Atomic numbers                             I   N=           5
           1           8           8           7           8
Nuclear charges                            R   N=           5
  1.00000000E+00  8.00000000E+00  8.00000000E+00  7.00000000E+00  8.00000000E+00
Current cartesian coordinates              R   N=          15
  2.12621776E+00 -1.11683704E+00  0.00000000E+00  2.49743611E+00  7.07877591E-01
  0.00000000E+00 -1.76605885E-17  1.72374770E+00  0.00000000E+00 -1.87836774E+00
 -8.82655333E-02  0.00000000E+00 -1.11964156E+00 -2.21478832E+00  0.00000000E+00
Number of symbols in /Mol/                 I                0
Force Field                                I                0
Atom Types                                 C   N=           5
                                                            
Int Atom Types                             I   N=           5
           0           0           0           0           0
MM charges                                 R   N=           5
  0.00000000E+00  0.00000000E+00  0.00000000E+00  0.00000000E+00  0.00000000E+00
Integer atomic weights                     I   N=           5
           1          16          16          14          16
Real atomic weights                        R   N=           5
  1.00782504E+00  1.59949146E+01  1.59949146E+01  1.40030740E+01  1.59949146E+01
Atom fragment info                         I   N=           5
           0           0           0           0           0
Atom residue num                           I   N=           5
           0           0           0           0           0
Nuclear spins                              I   N=           5
           1           0           0           2           0
Nuclear ZEff                               R   N=           5
 -1.00000000E+00 -5.60000000E+00 -5.60000000E+00 -4.55000000E+00 -5.60000000E+00
Nuclear ZNuc                               R   N=           5
  1.00000000E+00  8.00000000E+00  8.00000000E+00  7.00000000E+00  8.00000000E+00
Nuclear QMom                               R   N=           5
  0.00000000E+00  0.00000000E+00  0.00000000E+00  2.04400000E+00  0.00000000E+00
Nuclear GFac                               R   N=           5
  2.79284600E+00  0.00000000E+00  0.00000000E+00  4.03761000E-01  0.00000000E+00
MicOpt                                     I   N=           5
          -1          -1          -1          -1          -1
Number of residues                         I                0
Number of secondary structures             I                0
SymInf integers                            I   N=          26
           1           2           1           1           1           1
           1          -1           0           0           0           0
           0           0           0           0           0           0
           0           0           0           0           0           0
           0           0
RotTr to input orientation                 R   N=          12
 -9.79927226E-01  0.00000000E+00  1.99355541E-01  1.99355541E-01  0.00000000E+00
  9.79927226E-01  0.00000000E+00  1.00000000E+00  0.00000000E+00  2.30618632E+00
  0.00000000E+00  6.70545728E-01
Number of contracted shells                I               65
Number of primitive shells                 I              119
Pure/Cartesian d shells                    I                0
Pure/Cartesian f shells                    I                0
Highest angular momentum                   I                3
Largest degree of contraction              I                7
Shell types                                I   N=          65
           0           0           0           0           1           1
           1          -2          -2           0           0           0
           0           0           1           1           1           1
          -2          -2          -2          -3          -3           0
           0           0           0           0           1           1
           1           1          -2          -2          -2          -3
          -3           0           0           0           0           0
           1           1           1           1          -2          -2
          -2          -3          -3           0           0           0
           0           0           1           1           1           1
          -2          -2          -2          -3          -3
Number of primitives per shell             I   N=          65
           3           1           1           1           1           1
           1           1           1           7           6           1
           1           1           3           1           1           1
           1           1           1           1           1           7
           6           1           1           1           3           1
           1           1           1           1           1           1
           1           7           6           1           1           1
           3           1           1           1           1           1
           1           1           1           7           6           1
           1           1           3           1           1           1
           1           1           1           1           1
Shell to atom map                          I   N=          65
           1           1           1           1           1           1
           1           1           1           2           2           2
           2           2           2           2           2           2
           2           2           2           2           2           3
           3           3           3           3           3           3
           3           3           3           3           3           3
           3           4           4           4           4           4
           4           4           4           4           4           4
           4           4           4           5           5           5
           5           5           5           5           5           5
           5           5           5           5           5
Primitive exponents                        R   N=         119
  3.38700000E+01  5.09500000E+00  1.15900000E+00  3.25800000E-01  1.02700000E-01
  2.52600000E-02  1.40700000E+00  3.88000000E-01  1.02000000E-01  1.05700000E+00
  2.47000000E-01  1.53300000E+04  2.29900000E+03  5.22400000E+02  1.47300000E+02
  4.75500000E+01  1.67600000E+01  6.20700000E+00  5.22400000E+02  1.47300000E+02
  4.75500000E+01  1.67600000E+01  6.20700000E+00  6.88200000E-01  1.75200000E+00
  2.38400000E-01  7.37600000E-02  3.44600000E+01  7.74900000E+00  2.28000000E+00
  7.15600000E-01  2.14000000E-01  5.97400000E-02  2.31400000E+00  6.45000000E-01
  2.14000000E-01  1.42800000E+00  5.00000000E-01  1.53300000E+04  2.29900000E+03
  5.22400000E+02  1.47300000E+02  4.75500000E+01  1.67600000E+01  6.20700000E+00
  5.22400000E+02  1.47300000E+02  4.75500000E+01  1.67600000E+01  6.20700000E+00
  6.88200000E-01  1.75200000E+00  2.38400000E-01  7.37600000E-02  3.44600000E+01
  7.74900000E+00  2.28000000E+00  7.15600000E-01  2.14000000E-01  5.97400000E-02
  2.31400000E+00  6.45000000E-01  2.14000000E-01  1.42800000E+00  5.00000000E-01
  1.14200000E+04  1.71200000E+03  3.89300000E+02  1.10000000E+02  3.55700000E+01
  1.25400000E+01  4.64400000E+00  3.89300000E+02  1.10000000E+02  3.55700000E+01
  1.25400000E+01  4.64400000E+00  5.11800000E-01  1.29300000E+00  1.78700000E-01
  5.76000000E-02  2.66300000E+01  5.94800000E+00  1.74200000E+00  5.55000000E-01
  1.72500000E-01  4.91000000E-02  1.65400000E+00  4.69000000E-01  1.51000000E-01
  1.09300000E+00  3.64000000E-01  1.53300000E+04  2.29900000E+03  5.22400000E+02
  1.47300000E+02  4.75500000E+01  1.67600000E+01  6.20700000E+00  5.22400000E+02
  1.47300000E+02  4.75500000E+01  1.67600000E+01  6.20700000E+00  6.88200000E-01
  1.75200000E+00  2.38400000E-01  7.37600000E-02  3.44600000E+01  7.74900000E+00
  2.28000000E+00  7.15600000E-01  2.14000000E-01  5.97400000E-02  2.31400000E+00
  6.45000000E-01  2.14000000E-01  1.42800000E+00  5.00000000E-01
Contraction coefficients                   R   N=         119
  2.54948632E-02  1.90362766E-01  8.52162022E-01  1.00000000E+00  1.00000000E+00
  1.00000000E+00  1.00000000E+00  1.00000000E+00  1.00000000E+00  1.00000000E+00
  1.00000000E+00  5.19808943E-04  4.02025621E-03  2.07128267E-02  8.10105536E-02
  2.35962985E-01  4.42653446E-01  3.57064423E-01 -4.42115008E-05 -1.22591041E-03
 -1.05517725E-02 -6.74452633E-02 -1.71198607E-01  1.07329856E+00  1.00000000E+00
  1.00000000E+00  1.00000000E+00  4.11634896E-02  2.57762836E-01  8.02419274E-01
  1.00000000E+00  1.00000000E+00  1.00000000E+00  1.00000000E+00  1.00000000E+00
  1.00000000E+00  1.00000000E+00  1.00000000E+00  5.19808943E-04  4.02025621E-03
  2.07128267E-02  8.10105536E-02  2.35962985E-01  4.42653446E-01  3.57064423E-01
 -4.42115008E-05 -1.22591041E-03 -1.05517725E-02 -6.74452633E-02 -1.71198607E-01
  1.07329856E+00  1.00000000E+00  1.00000000E+00  1.00000000E+00  4.11634896E-02
  2.57762836E-01  8.02419274E-01  1.00000000E+00  1.00000000E+00  1.00000000E+00
  1.00000000E+00  1.00000000E+00  1.00000000E+00  1.00000000E+00  1.00000000E+00
  5.34563860E-04  4.13435660E-03  2.12335358E-02  8.25006224E-02  2.38138871E-01
  4.42551547E-01  3.53757422E-01 -4.89867350E-05 -1.19527323E-03 -1.03490714E-02
 -6.48680190E-02 -1.71552477E-01  1.07289568E+00  1.00000000E+00  1.00000000E+00
  1.00000000E+00  3.98072123E-02  2.49002660E-01  8.10479727E-01  1.00000000E+00
  1.00000000E+00  1.00000000E+00  1.00000000E+00  1.00000000E+00  1.00000000E+00
  1.00000000E+00  1.00000000E+00  5.19808943E-04  4.02025621E-03  2.07128267E-02
  8.10105536E-02  2.35962985E-01  4.42653446E-01  3.57064423E-01 -4.42115008E-05
 -1.22591041E-03 -1.05517725E-02 -6.74452633E-02 -1.71198607E-01  1.07329856E+00
  1.00000000E+00  1.00000000E+00  1.00000000E+00  4.11634896E-02  2.57762836E-01
  8.02419274E-01  1.00000000E+00  1.00000000E+00  1.00000000E+00  1.00000000E+00
  1.00000000E+00  1.00000000E+00  1.00000000E+00  1.00000000E+00
Coordinates of each shell                  R   N=         195
  2.12621776E+00 -1.11683704E+00  0.00000000E+00  2.12621776E+00 -1.11683704E+00
  0.00000000E+00  2.12621776E+00 -1.11683704E+00  0.00000000E+00  2.12621776E+00
 -1.11683704E+00  0.00000000E+00  2.12621776E+00 -1.11683704E+00  0.00000000E+00
  2.12621776E+00 -1.11683704E+00  0.00000000E+00  2.12621776E+00 -1.11683704E+00
  0.00000000E+00  2.12621776E+00 -1.11683704E+00  0.00000000E+00  2.12621776E+00
 -1.11683704E+00  0.00000000E+00  2.49743611E+00  7.07877591E-01  0.00000000E+00
  2.49743611E+00  7.07877591E-01  0.00000000E+00  2.49743611E+00  7.07877591E-01
  0.00000000E+00  2.49743611E+00  7.07877591E-01  0.00000000E+00  2.49743611E+00
  7.07877591E-01  0.00000000E+00  2.49743611E+00  7.07877591E-01  0.00000000E+00
  2.49743611E+00  7.07877591E-01  0.00000000E+00  2.49743611E+00  7.07877591E-01
  0.00000000E+00  2.49743611E+00  7.07877591E-01  0.00000000E+00  2.49743611E+00
  7.07877591E-01  0.00000000E+00  2.49743611E+00  7.07877591E-01  0.00000000E+00
  2.49743611E+00  7.07877591E-01  0.00000000E+00  2.49743611E+00  7.07877591E-01
  0.00000000E+00  2.49743611E+00  7.07877591E-01  0.00000000E+00 -4.20617472E-17
  1.72374770E+00  0.00000000E+00 -4.20617472E-17  1.72374770E+00  0.00000000E+00
 -4.20617472E-17  1.72374770E+00  0.00000000E+00 -4.20617472E-17  1.72374770E+00
  0.00000000E+00 -4.20617472E-17  1.72374770E+00  0.00000000E+00 -4.20617472E-17
  1.72374770E+00  0.00000000E+00 -4.20617472E-17  1.72374770E+00  0.00000000E+00
 -4.20617472E-17  1.72374770E+00  0.00000000E+00 -4.20617472E-17  1.72374770E+00
  0.00000000E+00 -4.20617472E-17  1.72374770E+00  0.00000000E+00 -4.20617472E-17
  1.72374770E+00  0.00000000E+00 -4.20617472E-17  1.72374770E+00  0.00000000E+00
 -4.20617472E-17  1.72374770E+00  0.00000000E+00 -4.20617472E-17  1.72374770E+00
  0.00000000E+00 -1.87836774E+00 -8.82655333E-02  0.00000000E+00 -1.87836774E+00
 -8.82655333E-02  0.00000000E+00 -1.87836774E+00 -8.82655333E-02  0.00000000E+00
 -1.87836774E+00 -8.82655333E-02  0.00000000E+00 -1.87836774E+00 -8.82655333E-02
  0.00000000E+00 -1.87836774E+00 -8.82655333E-02  0.00000000E+00 -1.87836774E+00
 -8.82655333E-02  0.00000000E+00 -1.87836774E+00 -8.82655333E-02  0.00000000E+00
 -1.87836774E+00 -8.82655333E-02  0.00000000E+00 -1.87836774E+00 -8.82655333E-02
  0.00000000E+00 -1.87836774E+00 -8.82655333E-02  0.00000000E+00 -1.87836774E+00
 -8.82655333E-02  0.00000000E+00 -1.87836774E+00 -8.82655333E-02  0.00000000E+00
 -1.87836774E+00 -8.82655333E-02  0.00000000E+00 -1.11964156E+00 -2.21478832E+00
  0.00000000E+00 -1.11964156E+00 -2.21478832E+00  0.00000000E+00 -1.11964156E+00
 -2.21478832E+00  0.00000000E+00 -1.11964156E+00 -2.21478832E+00  0.00000000E+00
 -1.11964156E+00 -2.21478832E+00  0.00000000E+00 -1.11964156E+00 -2.21478832E+00
  0.00000000E+00 -1.11964156E+00 -2.21478832E+00  0.00000000E+00 -1.11964156E+00
 -2.21478832E+00  0.00000000E+00 -1.11964156E+00 -2.21478832E+00  0.00000000E+00
 -1.11964156E+00 -2.21478832E+00  0.00000000E+00 -1.11964156E+00 -2.21478832E+00
  0.00000000E+00 -1.11964156E+00 -2.21478832E+00  0.00000000E+00 -1.11964156E+00
 -2.21478832E+00  0.00000000E+00 -1.11964156E+00 -2.21478832E+00  0.00000000E+00
Num ILSW                                   I              100
ILSW                                       I   N=         100
           0           0           0           0           2           0
           0           0           0           0           0          -1
           5           0           0           0           2           0
           0           0           0           0           1           0
           1           0           0           0           0           0
           0           0      100000           0          -1           0
           0           0           0           0           0           0
           0           0           0           1           1           0
           0 -2000000000           1           0           0           0
           0           0           4          52           0           0
           0           0           0           0           0           0
           0           0           0           5           4           1
           0           0           0           0           0           0
           0           0           0           0           0           0
           0           0           0           0           0           0
           0           0           0           0           0           0
           0           0           0           0
Num RLSW                                   I               52
RLSW                                       R   N=          52
  1.00000000E+00  1.00000000E+00  1.00000000E+00  1.00000000E+00  1.00000000E+00
  0.00000000E+00  0.00000000E+00  1.00000000E+00  0.00000000E+00  0.00000000E+00
  0.00000000E+00  0.00000000E+00  1.00000000E+00  0.00000000E+00  0.00000000E+00
  0.00000000E+00  0.00000000E+00  1.00000000E+00  0.00000000E+00  0.00000000E+00
  0.00000000E+00  0.00000000E+00  1.00000000E+00  0.00000000E+00  0.00000000E+00
  0.00000000E+00  0.00000000E+00  1.00000000E+00  0.00000000E+00  0.00000000E+00
  0.00000000E+00  0.00000000E+00  1.00000000E+00  0.00000000E+00  0.00000000E+00
  0.00000000E+00  0.00000000E+00  0.00000000E+00  1.00000000E+00  1.00000000E+00
  0.00000000E+00  1.00000000E+00  0.00000000E+00  0.00000000E+00  0.00000000E+00
  0.00000000E+00  0.00000000E+00  0.00000000E+00  0.00000000E+00  0.00000000E+00
  0.00000000E+00  0.00000000E+00
MxBond                                     I                2
NBond                                      I   N=           5
           1           2           2           2           1
IBond                                      I   N=          10
           2           0           1           3           2           4
           3           5           4           0
RBond                                      R   N=          10
  1.00000000E+00  0.00000000E+00  1.00000000E+00  1.00000000E+00  1.00000000E+00
  1.00000000E+00  1.00000000E+00  2.00000000E+00  2.00000000E+00  0.00000000E+00
Virial Ratio                               R      2.002246460033554E+00
SCF Energy                                 R     -2.795065365276607E+02
MP2 Energy                                 R     -2.804551990241234E+02
Total Energy                               R     -2.804551990241234E+02
Post-SCF wavefunction norm                 R      1.583757282694120E+00
RMS Force                                  R      1.184586922911246E-03
RMS Density                                R      4.220831876498610E-09
NImag                                      I                0
Job Status                                 I                1
Nuclear derivative order                   I                2
External E-field                           R   N=          35
  0.00000000E+00  0.00000000E+00  0.00000000E+00  0.00000000E+00  0.00000000E+00
  0.00000000E+00  0.00000000E+00  0.00000000E+00  0.00000000E+00  0.00000000E+00
  0.00000000E+00  0.00000000E+00  0.00000000E+00  0.00000000E+00  0.00000000E+00
  0.00000000E+00  0.00000000E+00  0.00000000E+00  0.00000000E+00  0.00000000E+00
  0.00000000E+00  0.00000000E+00  0.00000000E+00  0.00000000E+00  0.00000000E+00
  0.00000000E+00  0.00000000E+00  0.00000000E+00  0.00000000E+00  0.00000000E+00
  0.00000000E+00  0.00000000E+00  0.00000000E+00  0.00000000E+00  0.00000000E+00
IOpCl                                      I                0
IROHF                                      I                0
Alpha Orbital Energies                     R   N=         207
 -2.07188834E+01 -2.06868178E+01 -2.06693015E+01 -1.58260435E+01 -1.64324369E+00
 -1.50525129E+00 -1.29381341E+00 -9.60227990E-01 -8.33247163E-01 -7.58537553E-01
 -7.39386626E-01 -6.38506794E-01 -6.18647947E-01 -6.17974088E-01 -5.04206499E-01
 -4.97275782E-01  3.49160500E-02  6.05839262E-02  9.51554884E-02  1.00650124E-01
  1.19728359E-01  1.22513833E-01  1.48957792E-01  1.51646945E-01  1.77597455E-01
  1.80537836E-01  1.89875155E-01  2.11032723E-01  2.16692164E-01  2.41543367E-01
  2.46443231E-01  2.68984665E-01  3.11650022E-01  3.15703107E-01  3.37969342E-01
  3.44680659E-01  3.47306454E-01  3.91812402E-01  4.47717234E-01  4.88181757E-01
  5.04891290E-01  5.18990075E-01  5.44889662E-01  5.61348661E-01  5.99849537E-01
  6.20419611E-01  6.38445497E-01  6.89048453E-01  7.17346961E-01  7.24683820E-01
  7.42269920E-01  7.62282442E-01  7.66711620E-01  7.95590720E-01  8.05387266E-01
  8.40856759E-01  8.43425412E-01  8.51457425E-01  8.85174024E-01  9.07212075E-01
  9.29609245E-01  9.47857863E-01  9.53710576E-01  1.01853426E+00  1.03059404E+00
  1.05780490E+00  1.06517659E+00  1.09324619E+00  1.14181678E+00  1.15609110E+00
  1.16935689E+00  1.22213459E+00  1.22608087E+00  1.24658407E+00  1.34953810E+00
  1.36489119E+00  1.37390946E+00  1.46769213E+00  1.48508254E+00  1.50576979E+00
  1.54028237E+00  1.59415972E+00  1.59768235E+00  1.60549168E+00  1.62659102E+00
  1.69580314E+00  1.74051909E+00  1.80183510E+00  1.83063414E+00  1.88845482E+00
  1.89337604E+00  1.92730017E+00  1.97861084E+00  1.98830939E+00  2.05133333E+00
  2.12608605E+00  2.12864806E+00  2.16441676E+00  2.18536427E+00  2.24233068E+00
  2.25796746E+00  2.29510452E+00  2.34824557E+00  2.36300883E+00  2.38778334E+00
  2.40035349E+00  2.43211068E+00  2.46835819E+00  2.47683935E+00  2.52740274E+00
  2.53558430E+00  2.54900958E+00  2.55789459E+00  2.61396385E+00  2.62801391E+00
  2.67081720E+00  2.67125384E+00  2.75447703E+00  2.80941049E+00  2.81340808E+00
  2.84178582E+00  2.91609354E+00  2.98524406E+00  3.04640487E+00  3.04748961E+00
  3.11713824E+00  3.11832879E+00  3.16545645E+00  3.21300044E+00  3.30797669E+00
  3.33225752E+00  3.36519682E+00  3.47432048E+00  3.68167596E+00  3.86877592E+00
  3.92296265E+00  4.18016647E+00  4.21837832E+00  4.22297878E+00  4.26244062E+00
  4.36660804E+00  4.50221493E+00  4.51133197E+00  4.55639974E+00  4.59741581E+00
  4.69713672E+00  4.81264260E+00  4.90055350E+00  4.91347623E+00  4.93894562E+00
  4.99930635E+00  5.00635685E+00  5.10829625E+00  5.13030122E+00  5.18119980E+00
  5.24875630E+00  5.25831485E+00  5.31784141E+00  5.33345037E+00  5.35142697E+00
  5.55056343E+00  5.64533538E+00  5.70412649E+00  5.88761322E+00  5.99934859E+00
  6.26651451E+00  6.29659303E+00  6.36111178E+00  6.37821310E+00  6.59700098E+00
  6.65314852E+00  6.65793984E+00  6.68679378E+00  6.72812792E+00  6.79948783E+00
  6.80467252E+00  6.84892769E+00  6.96757463E+00  7.02058738E+00  7.06618453E+00
  7.08068808E+00  7.13667940E+00  7.16708675E+00  7.17496249E+00  7.20266925E+00
  7.24536471E+00  7.24786653E+00  7.27023041E+00  7.34624368E+00  7.39035389E+00
  7.42606480E+00  7.44285618E+00  7.46340863E+00  7.55639653E+00  7.66096048E+00
  7.66463963E+00  7.79539931E+00  7.88159848E+00  7.94850389E+00  8.05375177E+00
  8.30249651E+00  8.49669777E+00  8.65418717E+00  1.36095540E+01  1.47779657E+01
  1.50897986E+01  1.57364443E+01
Alpha MO coefficients                      R   N=       42849
  6.56346840E-05 -4.94105503E-05 -1.11982868E-03  1.46573663E-05 -5.22179038E-05
  4.27648217E-05  0.00000000E+00 -8.59713290E-05 -2.99821564E-04  0.00000000E+00
  1.55611828E-05 -3.47918255E-04  0.00000000E+00  4.33507789E-05  0.00000000E+00
  0.00000000E+00 -2.62396482E-05  1.15029086E-05  2.25317900E-04  0.00000000E+00
  0.00000000E+00 -3.91903752E-05 -2.04840741E-04  3.18391950E-03 -9.57562519E-05
 -9.59784206E-05  3.58697451E-03  2.49687213E-03  1.04270283E-04 -5.24772226E-05
  0.00000000E+00 -7.40974601E-04  2.79164779E-04  0.00000000E+00 -2.02243534E-03
  1.06103472E-03  0.00000000E+00 -5.44679238E-04  4.36751194E-05  0.00000000E+00
  2.04923143E-05  0.00000000E+00  0.00000000E+00 -9.90849110E-06  4.38558979E-05
 -4.46009434E-04  0.00000000E+00  0.00000000E+00  4.45479569E-04 -6.53804391E-04
 -3.67602534E-04  0.00000000E+00  0.00000000E+00  5.67013527E-04 -7.21015156E-04
  0.00000000E+00  7.51763987E-05 -5.20253645E-05  0.00000000E+00  0.00000000E+00
 -3.03657688E-05  1.06987770E-04  0.00000000E+00  2.06906375E-04 -4.71927107E-05
  0.00000000E+00  0.00000000E+00 -1.84138640E-04  2.96119089E-04  9.76901994E-01
 -9.16866589E-03  4.34121209E-02  4.77601364E-04 -2.19190884E-03  4.60244920E-04
 -2.14353719E-03  0.00000000E+00 -3.28725437E-04  2.24397531E-03  0.00000000E+00
 -2.35718763E-03 -4.64528865E-04  0.00000000E+00 -2.40688676E-04  8.97076131E-05
  0.00000000E+00  5.92652852E-06  0.00000000E+00  0.00000000E+00 -3.58717709E-06
  3.89919475E-05  8.30855647E-04  0.00000000E+00  0.00000000E+00 -4.88418676E-04
 -1.81292240E-04 -1.38300379E-04  0.00000000E+00  0.00000000E+00 -5.29523820E-04
  3.57932675E-04  0.00000000E+00 -6.39224541E-06 -7.87053801E-05  0.00000000E+00
  0.00000000E+00 -9.58128819E-06  4.81585962E-05  0.00000000E+00  9.45511732E-05
 -2.31430038E-07  0.00000000E+00  0.00000000E+00 -3.46904658E-04  3.79838125E-04
  1.04889975E-04  4.61036330E-04 -3.23347956E-04 -8.44983105E-04  3.09928902E-04
 -4.49761588E-05 -1.00140632E-04  0.00000000E+00  7.07396494E-04  1.11668393E-03
  0.00000000E+00 -7.63944228E-04 -6.95043910E-04  0.00000000E+00  1.87948393E-04
  2.06166081E-04  0.00000000E+00 -5.30679843E-05  0.00000000E+00  0.00000000E+00
  1.93788211E-05  9.32941929E-05 -4.13490382E-04  0.00000000E+00  0.00000000E+00
  5.65527652E-05  1.08504052E-03  2.96801988E-05  0.00000000E+00  0.00000000E+00
 -3.08531565E-04  2.20978046E-05  0.00000000E+00 -7.90219278E-05 -1.14053910E-04
  0.00000000E+00  0.00000000E+00 -9.49051532E-05  1.06338113E-04  0.00000000E+00
 -1.21829468E-04  5.10289989E-05  0.00000000E+00  0.00000000E+00  2.41750486E-05
  5.28645132E-04 -7.19227630E-04  4.67231266E-05 -7.11637180E-05  1.97766508E-04
 -1.48571544E-04 -2.88042220E-05 -4.19720466E-05  0.00000000E+00  1.68031708E-04
  2.57709689E-04  0.00000000E+00  5.36107863E-04  3.29966497E-04  0.00000000E+00
 -2.12897611E-04 -5.67842081E-05  0.00000000E+00 -1.31287232E-05  0.00000000E+00
  0.00000000E+00  3.64983812E-06  1.49376578E-05 -2.39280963E-06  0.00000000E+00
  0.00000000E+00 -1.68054047E-04  1.14068738E-05 -2.61488539E-05  0.00000000E+00
  0.00000000E+00 -1.70214935E-04 -3.90907356E-05  0.00000000E+00 -5.62442279E-06
 -9.05780173E-06  0.00000000E+00  0.00000000E+00 -2.20513312E-05  9.18800206E-06
  0.00000000E+00  3.94598091E-05  6.02758432E-05  0.00000000E+00  0.00000000E+00
  1.59327339E-04 -1.03600387E-04  4.05465489E-05  6.46697465E-05 -1.26490399E-04
 -2.89668580E-05  1.30803403E-05  6.43795478E-06  0.00000000E+00  2.49060515E-04
  6.99924817E-05  0.00000000E+00  1.34053132E-04  2.85642650E-05  0.00000000E+00
  1.57149415E-05  0.00000000E+00  0.00000000E+00 -1.53950150E-05  1.37023235E-05
  2.65596409E-05  0.00000000E+00  0.00000000E+00 -1.03255058E-04  5.71755291E-05
 -2.64218703E-04  1.77599984E-05 -1.51332016E-05 -5.47006690E-04  1.61359411E-04
  6.55758284E-06  1.41072359E-05  0.00000000E+00  5.47285124E-06 -4.18935635E-05
  0.00000000E+00  1.71681953E-04  1.26270605E-04  0.00000000E+00 -4.97708955E-05
  4.66999750E-05  0.00000000E+00 -5.63144156E-07  0.00000000E+00  0.00000000E+00
 -7.95044090E-06 -1.25696982E-05  1.77211906E-05  0.00000000E+00  0.00000000E+00
  4.26950023E-05  1.10518334E-04  5.79195197E-05  0.00000000E+00  0.00000000E+00
 -2.15257671E-05 -7.22254077E-05  0.00000000E+00  7.38155681E-06  1.09221582E-05
  0.00000000E+00  0.00000000E+00 -5.50609112E-07 -2.30448174E-05  0.00000000E+00
 -1.22339028E-05 -3.32885387E-05  0.00000000E+00  0.00000000E+00  8.43191483E-07
 -2.30432615E-05  7.47446225E-04  2.24974477E-05 -1.85336859E-05  3.00874721E-04
 -3.83150520E-04  1.63762518E-05  2.71973753E-05  0.00000000E+00 -6.52587794E-05
 -1.53050822E-04  0.00000000E+00  1.48678923E-04 -1.95072083E-04  0.00000000E+00
 -1.55746981E-04  1.40835828E-04  0.00000000E+00 -3.98687787E-06  0.00000000E+00
  0.00000000E+00 -2.97255915E-05 -9.61157260E-06 -5.19076774E-05  0.00000000E+00
  0.00000000E+00  8.21665488E-05  1.21002339E-04 -6.57428408E-05  0.00000000E+00
  0.00000000E+00  5.09788486E-05  2.83361981E-05  0.00000000E+00  2.85599948E-06
  3.28310141E-06  0.00000000E+00  0.00000000E+00 -7.63742374E-06 -1.95322726E-06
  0.00000000E+00  4.07626756E-06 -2.49117902E-05  0.00000000E+00  0.00000000E+00
  9.39668333E-05 -1.56861257E-04  2.37494140E-04  1.35950335E-03 -1.47666058E-04
 -6.85827417E-04  8.95074208E-04  6.28914356E-05 -7.11532561E-05  0.00000000E+00
  5.67398160E-04 -2.08552848E-03  0.00000000E+00  1.16251839E-04  4.80615392E-04
  0.00000000E+00  1.82476815E-04 -3.07225869E-04  0.00000000E+00 -1.27976336E-04
  0.00000000E+00  0.00000000E+00 -2.04835991E-04 -1.57659015E-04 -4.60167723E-04
  0.00000000E+00  0.00000000E+00 -6.07080945E-04 -9.15854357E-04 -4.12097798E-05
  0.00000000E+00  0.00000000E+00  6.16723486E-05  1.12534597E-04  0.00000000E+00
  8.47360949E-06  3.67741622E-05  0.00000000E+00  0.00000000E+00 -2.42398714E-05
 -3.94607300E-06  0.00000000E+00 -1.34071884E-04  1.59685118E-04  0.00000000E+00
  0.00000000E+00 -3.14494619E-04 -2.85796219E-05  9.76646871E-01 -9.88701460E-03
  4.35740645E-02  3.67828490E-03 -8.89979361E-04 -4.47019117E-04  2.13226386E-03
  0.00000000E+00  5.07839560E-04 -2.50637966E-03  0.00000000E+00 -6.09720725E-05
  8.08813290E-04  0.00000000E+00  1.05124565E-04 -6.47906646E-05  0.00000000E+00
 -1.94119021E-04  0.00000000E+00  0.00000000E+00 -7.48791321E-05 -4.33545700E-05
  4.09279947E-04  0.00000000E+00  0.00000000E+00  8.60809655E-04  4.80262458E-04
 -2.07847120E-04  0.00000000E+00  0.00000000E+00 -1.35561600E-04 -3.73751975E-05
  0.00000000E+00 -4.19658309E-06  7.04112021E-05  0.00000000E+00  0.00000000E+00
 -2.98320055E-05  1.06902757E-05  0.00000000E+00 -8.99457114E-05  9.20210249E-05
  0.00000000E+00  0.00000000E+00 -1.62274196E-04  2.06359178E-04  3.78928950E-04
  1.99922572E-03  1.29726770E-03 -1.96728428E-05  4.76944787E-05  2.70512553E-04
  0.00000000E+00  3.88809111E-04  1.03989892E-03  0.00000000E+00 -9.79814747E-05
  2.39843701E-04  0.00000000E+00 -2.37004476E-05  0.00000000E+00  0.00000000E+00
  3.12295494E-05 -2.68082052E-05 -2.09613287E-04  0.00000000E+00  0.00000000E+00
 -3.54923026E-04  3.90465580E-04  9.76836630E-01 -9.18525626E-03  4.34612589E-02
  1.48957208E-04 -1.91663481E-03 -2.03312762E-03 -8.64176179E-04  0.00000000E+00
  2.07085693E-03  8.01101867E-04  0.00000000E+00 -4.15248851E-04  6.59370991E-04
  0.00000000E+00  2.24960630E-04 -2.94050405E-04  0.00000000E+00  3.16868906E-05
  0.00000000E+00  0.00000000E+00 -7.58989961E-05  6.06072487E-05  7.66604801E-04
  0.00000000E+00  0.00000000E+00 -2.12920569E-04  3.47337823E-04 -2.33955349E-04
  0.00000000E+00  0.00000000E+00  3.42728025E-04  2.93528081E-06  0.00000000E+00
 -8.04104065E-05  7.22772756E-07  0.00000000E+00  0.00000000E+00  1.73038839E-05