 Entering Gaussian System, Link 0=g16
 Input=hoono_a3_110p4331.gjf
 Output=hoono_a3_110p4331.log
 Initial command:
 /sw/contrib/gaussian/g16/B01/g16/l1.exe "/scr/Gau-27382.inp" -scrdir="/scr/"
 Entering Link 1 = /sw/contrib/gaussian/g16/B01/g16/l1.exe PID=     27383.
  
 Copyright (c) 1988-2017, Gaussian, Inc.  All Rights Reserved.
  
 This is part of the Gaussian(R) 16 program.  It is based on
 the Gaussian(R) 09 system (copyright 2009, Gaussian, Inc.),
 the Gaussian(R) 03 system (copyright 2003, Gaussian, Inc.),
 the Gaussian(R) 98 system (copyright 1998, Gaussian, Inc.),
 the Gaussian(R) 94 system (copyright 1995, Gaussian, Inc.),
 the Gaussian 92(TM) system (copyright 1992, Gaussian, Inc.),
 the Gaussian 90(TM) system (copyright 1990, Gaussian, Inc.),
 the Gaussian 88(TM) system (copyright 1988, Gaussian, Inc.),
 the Gaussian 86(TM) system (copyright 1986, Carnegie Mellon
 University), and the Gaussian 82(TM) system (copyright 1983,
 Carnegie Mellon University). Gaussian is a federally registered
 trademark of Gaussian, Inc.
  
 This software contains proprietary and confidential information,
 including trade secrets, belonging to Gaussian, Inc.
  
 This software is provided under written license and may be
 used, copied, transmitted, or stored only in accord with that
 written license.
  
 The following legend is applicable only to US Government
 contracts under FAR:
  
                    RESTRICTED RIGHTS LEGEND
  
 Use, reproduction and disclosure by the US Government is
 subject to restrictions as set forth in subparagraphs (a)
 and (c) of the Commercial Computer Software - Restricted
 Rights clause in FAR 52.227-19.
  
 Gaussian, Inc.
 340 Quinnipiac St., Bldg. 40, Wallingford CT 06492
  
  
 ---------------------------------------------------------------
 Warning -- This program may not be used in any manner that
 competes with the business of Gaussian, Inc. or will provide
 assistance to any competitor of Gaussian, Inc.  The licensee
 of this program is prohibited from giving any competitor of
 Gaussian, Inc. access to this program.  By using this program,
 the user acknowledges that Gaussian, Inc. is engaged in the
 business of creating and licensing software in the field of
 computational chemistry and represents and warrants to the
 licensee that it is not a competitor of Gaussian, Inc. and that
 it will not use this program in any manner prohibited above.
 ---------------------------------------------------------------
  

 Cite this work as:
 Gaussian 16, Revision B.01,
 M. J. Frisch, G. W. Trucks, H. B. Schlegel, G. E. Scuseria, 
 M. A. Robb, J. R. Cheeseman, G. Scalmani, V. Barone, 
 G. A. Petersson, H. Nakatsuji, X. Li, M. Caricato, A. V. Marenich, 
 J. Bloino, B. G. Janesko, R. Gomperts, B. Mennucci, H. P. Hratchian, 
 J. V. Ortiz, A. F. Izmaylov, J. L. Sonnenberg, D. Williams-Young, 
 F. Ding, F. Lipparini, F. Egidi, J. Goings, B. Peng, A. Petrone, 
 T. Henderson, D. Ranasinghe, V. G. Zakrzewski, J. Gao, N. Rega, 
 G. Zheng, W. Liang, M. Hada, M. Ehara, K. Toyota, R. Fukuda, 
 J. Hasegawa, M. Ishida, T. Nakajima, Y. Honda, O. Kitao, H. Nakai, 
 T. Vreven, K. Throssell, J. A. Montgomery, Jr., J. E. Peralta, 
 F. Ogliaro, M. J. Bearpark, J. J. Heyd, E. N. Brothers, K. N. Kudin, 
 V. N. Staroverov, T. A. Keith, R. Kobayashi, J. Normand, 
 K. Raghavachari, A. P. Rendell, J. C. Burant, S. S. Iyengar, 
 J. Tomasi, M. Cossi, J. M. Millam, M. Klene, C. Adamo, R. Cammi, 
 J. W. Ochterski, R. L. Martin, K. Morokuma, O. Farkas, 
 J. B. Foresman, and D. J. Fox, Gaussian, Inc., Wallingford CT, 2016.
 
 ******************************************
 Gaussian 16:  ES64L-G16RevB.01 20-Dec-2017
                21-Feb-2022 
 ******************************************
 %nproc=28
 Will use up to   28 processors via shared memory.
 %mem=120GB
 %chk=hoono_a3_110p4331.chk
 ---------------------------------------
 #p freq mp2/aug-cc-pvtz density=current
 ---------------------------------------
 1/10=4,30=1,38=1/1,3;
 2/12=2,17=6,18=5,40=1/2;
 3/5=16,6=1,7=10,11=9,25=1,30=1,71=2,140=1/1,2,3;
 4//1;
 5/5=2,38=5,98=1/2;
 8/6=3,8=1,10=1,19=11,30=-1/1;
 9/15=3,16=-3/6;
 11/6=1,8=1,15=11,17=12,24=-1,27=1,28=-2,29=300,32=6,42=3/1,2,10;
 10/6=2,21=1/2;
 8/6=4,8=1,10=1,19=11,30=-1/11,4;
 10/5=1,20=4/2;
 11/12=2,14=11,16=1,17=2,28=-2,42=3,76=2/2,10,12;
 6/7=2,8=2,9=2,10=2,22=-1/1;
 7/8=1,10=1,12=2,25=1,44=2/1,2,3,16;
 1/10=4,30=1/3;
 99//99;
 Leave Link    1 at Mon Feb 21 20:50:37 2022, MaxMem= 16106127360 cpu:               1.8 elap:               0.1
 (Enter /sw/contrib/gaussian/g16/B01/g16/l101.exe)
 -----
 title
 -----
 Symbolic Z-matrix:
 Charge =  0 Multiplicity = 1
 H
 O                    1    r1
 O                    2    r2       1    a1
 N                    3    r3       2    a2       1    d1       0
 O                    4    r4       3    a3       2    d2       0
       Variables:
  r1                    0.96898                  
  r2                    1.45492                  
  r3                    1.45878                  
  r4                    1.17073                  
  a1                   97.59495                  
  a2                  102.29752                  
  a3                  110.43312                  
  d1                  180.                       
  d2                  180.                       
 
 ITRead=  0  0  0  0  0
 MicOpt= -1 -1 -1 -1 -1
 NAtoms=      5 NQM=        5 NQMF=       0 NMMI=      0 NMMIF=      0
                NMic=       0 NMicF=      0.
                    Isotopes and Nuclear Properties:
 (Nuclear quadrupole moments (NQMom) in fm**2, nuclear magnetic moments (NMagM)
  in nuclear magnetons)

  Atom         1           2           3           4           5
 IAtWgt=           1          16          16          14          16
 AtmWgt=   1.0078250  15.9949146  15.9949146  14.0030740  15.9949146
 NucSpn=           1           0           0           2           0
 AtZEff=  -0.0000000  -0.0000000  -0.0000000  -0.0000000  -0.0000000
 NQMom=    0.0000000   0.0000000   0.0000000   2.0440000   0.0000000
 NMagM=    2.7928460   0.0000000   0.0000000   0.4037610   0.0000000
 AtZNuc=   1.0000000   8.0000000   8.0000000   7.0000000   8.0000000
 Leave Link  101 at Mon Feb 21 20:50:37 2022, MaxMem= 16106127360 cpu:               2.6 elap:               0.1
 (Enter /sw/contrib/gaussian/g16/B01/g16/l103.exe)

 GradGradGradGradGradGradGradGradGradGradGradGradGradGradGradGradGradGrad
 Berny optimization.
 Initialization pass.
                       ----------------------------
                       !    Initial Parameters    !
                       ! (Angstroms and Degrees)  !
 ----------------------                            ----------------------
 !      Name          Value   Derivative information (Atomic Units)     !
 ------------------------------------------------------------------------
 !       r1          0.969    calculate D2E/DX2 analytically            !
 !       r2          1.4549   calculate D2E/DX2 analytically            !
 !       r3          1.4588   calculate D2E/DX2 analytically            !
 !       r4          1.1707   calculate D2E/DX2 analytically            !
 !       a1         97.5949   calculate D2E/DX2 analytically            !
 !       a2        102.2975   calculate D2E/DX2 analytically            !
 !       a3        110.4331   calculate D2E/DX2 analytically            !
 !       d1        180.0      calculate D2E/DX2 analytically            !
 !       d2        180.0      calculate D2E/DX2 analytically            !
 ------------------------------------------------------------------------
 Trust Radius=3.00D-01 FncErr=1.00D-07 GrdErr=1.00D-07 EigMax=2.50D+02 EigMin=1.00D-04
 Number of steps in this run=      2 maximum allowed number of steps=      2.
 GradGradGradGradGradGradGradGradGradGradGradGradGradGradGradGradGradGrad

 Leave Link  103 at Mon Feb 21 20:50:37 2022, MaxMem= 16106127360 cpu:               0.5 elap:               0.0
 (Enter /sw/contrib/gaussian/g16/B01/g16/l202.exe)
                          Input orientation:                          
 ---------------------------------------------------------------------
 Center     Atomic      Atomic             Coordinates (Angstroms)
 Number     Number       Type             X           Y           Z
 ---------------------------------------------------------------------
      1          1           0        0.000000    0.000000    0.000000
      2          8           0        0.000000    0.000000    0.968976
      3          8           0        1.442156    0.000000    1.161271
      4          7           0        1.561752    0.000000    2.615144
      5          8           0        2.688633    0.000000    2.932545
 ---------------------------------------------------------------------
                    Distance matrix (angstroms):
                    1          2          3          4          5
     1  H    0.000000
     2  O    0.968976   0.000000
     3  O    1.851584   1.454919   0.000000
     4  N    3.045989   2.269127   1.458784   0.000000
     5  O    3.978513   3.329317   2.165899   1.170729   0.000000
 Stoichiometry    HNO3
 Framework group  CS[SG(HNO3)]
 Deg. of freedom     7
 Full point group                 CS      NOp   2
 Largest Abelian subgroup         CS      NOp   2
 Largest concise Abelian subgroup C1      NOp   1
                         Standard orientation:                         
 ---------------------------------------------------------------------
 Center     Atomic      Atomic             Coordinates (Angstroms)
 Number     Number       Type             X           Y           Z
 ---------------------------------------------------------------------
      1          1           0        1.550810    1.691489    0.000000
      2          8           0        1.454145    0.727347    0.000000
      3          8           0       -0.000000    0.679881    0.000000
      4          7           0       -0.264038   -0.754808   -0.000000
      5          8           0       -1.416963   -0.958208   -0.000000
 ---------------------------------------------------------------------
 Rotational constants (GHZ):          55.3098296           4.9781603           4.5670986
 Leave Link  202 at Mon Feb 21 20:50:37 2022, MaxMem= 16106127360 cpu:               0.3 elap:               0.0
 (Enter /sw/contrib/gaussian/g16/B01/g16/l301.exe)
 Standard basis: Aug-CC-pVTZ (5D, 7F)
 Ernie: Thresh=  0.10000D-02 Tol=  0.10000D-05 Strict=F.
 Ernie:  12 primitive shells out of 131 were deleted.
 There are   166 symmetry adapted cartesian basis functions of A'  symmetry.
 There are    79 symmetry adapted cartesian basis functions of A"  symmetry.
 There are   136 symmetry adapted basis functions of A'  symmetry.
 There are    71 symmetry adapted basis functions of A"  symmetry.
   207 basis functions,   315 primitive gaussians,   245 cartesian basis functions
    16 alpha electrons       16 beta electrons
       nuclear repulsion energy       116.7085174935 Hartrees.
 IExCor=    0 DFT=F Ex=HF Corr=None ExCW=0 ScaHFX=  1.000000
 ScaDFX=  1.000000  1.000000  1.000000  1.000000 ScalE2=  1.000000  1.000000
 IRadAn=      5 IRanWt=     -1 IRanGd=            0 ICorTp=0 IEmpDi=  4
 NAtoms=    5 NActive=    5 NUniq=    5 SFac= 1.00D+00 NAtFMM=   60 NAOKFM=F Big=F
 Integral buffers will be    131072 words long.
 Raffenetti 1 integral format.
 Two-electron integral symmetry is turned on.
 Leave Link  301 at Mon Feb 21 20:50:37 2022, MaxMem= 16106127360 cpu:               1.3 elap:               0.1
 (Enter /sw/contrib/gaussian/g16/B01/g16/l302.exe)
 NPDir=0 NMtPBC=     1 NCelOv=     1 NCel=       1 NClECP=     1 NCelD=      1
         NCelK=      1 NCelE2=     1 NClLst=     1 CellRange=     0.0.
 One-electron integrals computed using PRISM.
 One-electron integral symmetry used in STVInt
 NBasis=   207 RedAO= T EigKep=  1.82D-04  NBF=   136    71
 NBsUse=   207 1.00D-06 EigRej= -1.00D+00 NBFU=   136    71
 Leave Link  302 at Mon Feb 21 20:50:37 2022, MaxMem= 16106127360 cpu:               5.0 elap:               0.2
 (Enter /sw/contrib/gaussian/g16/B01/g16/l303.exe)
 DipDrv:  MaxL=1.
 Leave Link  303 at Mon Feb 21 20:50:37 2022, MaxMem= 16106127360 cpu:               0.9 elap:               0.1
 (Enter /sw/contrib/gaussian/g16/B01/g16/l401.exe)
 ExpMin= 2.53D-02 ExpMax= 1.53D+04 ExpMxC= 5.22D+02 IAcc=3 IRadAn=         5 AccDes= 0.00D+00
 Harris functional with IExCor=  205 and IRadAn=       5 diagonalized for initial guess.
 HarFok:  IExCor=  205 AccDes= 0.00D+00 IRadAn=         5 IDoV= 1 UseB2=F ITyADJ=14
 ICtDFT=  3500011 ScaDFX=  1.000000  1.000000  1.000000  1.000000
 FoFCou: FMM=F IPFlag=           0 FMFlag=      100000 FMFlg1=           0
         NFxFlg=           0 DoJE=T BraDBF=F KetDBF=T FulRan=T
         wScrn=  0.000000 ICntrl=       500 IOpCl=  0 I1Cent=   200000004 NGrid=           0
         NMat0=    1 NMatS0=      1 NMatT0=    0 NMatD0=    1 NMtDS0=    0 NMtDT0=    0
 Petite list used in FoFCou.
 Harris En= -279.628566539780    
 JPrj=0 DoOrth=F DoCkMO=F.
 Initial guess orbital symmetries:
       Occupied  (A') (A') (A') (A') (A') (A') (A') (A') (A') (A')
                 (A") (A') (A') (A") (A") (A')
       Virtual   (A") (A') (A') (A') (A') (A') (A") (A') (A') (A')
                 (A") (A') (A") (A') (A') (A") (A') (A") (A') (A')
                 (A') (A') (A') (A') (A') (A") (A') (A") (A') (A')
                 (A") (A') (A") (A') (A') (A") (A') (A") (A') (A')
                 (A") (A') (A") (A') (A") (A') (A') (A') (A") (A")
                 (A') (A') (A') (A') (A") (A') (A") (A') (A") (A')
                 (A') (A') (A") (A') (A') (A") (A') (A") (A') (A')
                 (A") (A') (A') (A") (A") (A') (A') (A") (A') (A')
                 (A') (A") (A') (A") (A') (A") (A') (A") (A') (A')
                 (A') (A") (A') (A") (A') (A") (A") (A') (A') (A")
                 (A') (A') (A") (A') (A') (A') (A") (A') (A") (A')
                 (A") (A') (A') (A') (A") (A') (A') (A') (A") (A')
                 (A") (A') (A') (A") (A") (A') (A') (A") (A") (A')
                 (A') (A') (A') (A") (A") (A') (A") (A') (A') (A')
                 (A') (A") (A") (A') (A') (A") (A') (A') (A') (A')
                 (A") (A') (A') (A") (A') (A") (A') (A") (A") (A')
                 (A') (A") (A') (A") (A') (A") (A") (A") (A') (A')
                 (A") (A') (A") (A') (A") (A') (A") (A") (A') (A')
                 (A') (A') (A') (A') (A') (A') (A') (A') (A') (A')
                 (A')
 The electronic state of the initial guess is 1-A'.
 Leave Link  401 at Mon Feb 21 20:50:38 2022, MaxMem= 16106127360 cpu:               6.9 elap:               0.3
 (Enter /sw/contrib/gaussian/g16/B01/g16/l502.exe)
 Keep R1 ints in memory in symmetry-blocked form, NReq=348887737.
 FoFCou: FMM=F IPFlag=           0 FMFlag=           0 FMFlg1=           0
         NFxFlg=           0 DoJE=F BraDBF=F KetDBF=F FulRan=T
         wScrn=  0.000000 ICntrl=       600 IOpCl=  0 I1Cent=           0 NGrid=           0
         NMat0=    1 NMatS0=  21528 NMatT0=    0 NMatD0=    1 NMtDS0=    0 NMtDT0=    0
 Petite list used in FoFCou.
 Closed shell SCF:
 Using DIIS extrapolation, IDIIS=  1040.
 NGot= 16106127360 LenX= 15988850015 LenY= 15988789549
 Requested convergence on RMS density matrix=1.00D-08 within 128 cycles.
 Requested convergence on MAX density matrix=1.00D-06.
 Requested convergence on             energy=1.00D-06.
 No special actions if energy rises.

 Cycle   1  Pass 1  IDiag  1:
 E= -279.370654155521    
 DIIS: error= 2.89D-02 at cycle   1 NSaved=   1.
 NSaved= 1 IEnMin= 1 EnMin= -279.370654155521     IErMin= 1 ErrMin= 2.89D-02
 ErrMax= 2.89D-02  0.00D+00 EMaxC= 1.00D-01 BMatC= 4.38D-01 BMatP= 4.38D-01
 IDIUse=3 WtCom= 7.11D-01 WtEn= 2.89D-01
 Coeff-Com:  0.100D+01
 Coeff-En:   0.100D+01
 Coeff:      0.100D+01
 Gap=     0.515 Goal=   None    Shift=    0.000
 GapD=    0.515 DampG=2.000 DampE=0.500 DampFc=1.0000 IDamp=-1.
 RMSDP=1.62D-03 MaxDP=9.76D-02              OVMax= 1.12D-01

 Cycle   2  Pass 1  IDiag  1:
 E= -279.452278597263     Delta-E=       -0.081624441742 Rises=F Damp=F
 DIIS: error= 1.77D-02 at cycle   2 NSaved=   2.
 NSaved= 2 IEnMin= 2 EnMin= -279.452278597263     IErMin= 2 ErrMin= 1.77D-02
 ErrMax= 1.77D-02  0.00D+00 EMaxC= 1.00D-01 BMatC= 7.16D-02 BMatP= 4.38D-01
 IDIUse=3 WtCom= 8.23D-01 WtEn= 1.77D-01
 Coeff-Com:  0.194D+00 0.806D+00
 Coeff-En:   0.000D+00 0.100D+01
 Coeff:      0.160D+00 0.840D+00
 Gap=     0.527 Goal=   None    Shift=    0.000
 RMSDP=9.00D-04 MaxDP=3.71D-02 DE=-8.16D-02 OVMax= 6.91D-02

 Cycle   3  Pass 1  IDiag  1:
 E= -279.481128083744     Delta-E=       -0.028849486482 Rises=F Damp=F
 DIIS: error= 1.03D-02 at cycle   3 NSaved=   3.
 NSaved= 3 IEnMin= 3 EnMin= -279.481128083744     IErMin= 3 ErrMin= 1.03D-02
 ErrMax= 1.03D-02  0.00D+00 EMaxC= 1.00D-01 BMatC= 2.90D-02 BMatP= 7.16D-02
 IDIUse=3 WtCom= 8.97D-01 WtEn= 1.03D-01
 Coeff-Com: -0.330D-01 0.380D+00 0.653D+00
 Coeff-En:   0.000D+00 0.244D+00 0.756D+00
 Coeff:     -0.297D-01 0.366D+00 0.664D+00
 Gap=     0.508 Goal=   None    Shift=    0.000
 RMSDP=3.77D-04 MaxDP=1.52D-02 DE=-2.88D-02 OVMax= 3.83D-02

 Cycle   4  Pass 1  IDiag  1:
 E= -279.500371480312     Delta-E=       -0.019243396568 Rises=F Damp=F
 DIIS: error= 1.31D-03 at cycle   4 NSaved=   4.
 NSaved= 4 IEnMin= 4 EnMin= -279.500371480312     IErMin= 4 ErrMin= 1.31D-03
 ErrMax= 1.31D-03  0.00D+00 EMaxC= 1.00D-01 BMatC= 4.90D-04 BMatP= 2.90D-02
 IDIUse=3 WtCom= 9.87D-01 WtEn= 1.31D-02
 Coeff-Com: -0.117D-01 0.578D-01 0.157D+00 0.797D+00
 Coeff-En:   0.000D+00 0.000D+00 0.000D+00 0.100D+01
 Coeff:     -0.115D-01 0.570D-01 0.155D+00 0.799D+00
 Gap=     0.500 Goal=   None    Shift=    0.000
 RMSDP=9.07D-05 MaxDP=2.80D-03 DE=-1.92D-02 OVMax= 1.12D-02

 Cycle   5  Pass 1  IDiag  1:
 E= -279.501046833862     Delta-E=       -0.000675353550 Rises=F Damp=F
 DIIS: error= 7.43D-04 at cycle   5 NSaved=   5.
 NSaved= 5 IEnMin= 5 EnMin= -279.501046833862     IErMin= 5 ErrMin= 7.43D-04
 ErrMax= 7.43D-04  0.00D+00 EMaxC= 1.00D-01 BMatC= 8.75D-05 BMatP= 4.90D-04
 IDIUse=3 WtCom= 9.93D-01 WtEn= 7.43D-03
 Coeff-Com:  0.609D-02-0.722D-01-0.117D+00 0.236D-01 0.116D+01
 Coeff-En:   0.000D+00 0.000D+00 0.000D+00 0.000D+00 0.100D+01
 Coeff:      0.604D-02-0.716D-01-0.116D+00 0.235D-01 0.116D+01
 Gap=     0.500 Goal=   None    Shift=    0.000
 RMSDP=7.61D-05 MaxDP=2.09D-03 DE=-6.75D-04 OVMax= 1.10D-02

 Cycle   6  Pass 1  IDiag  1:
 E= -279.501362029501     Delta-E=       -0.000315195639 Rises=F Damp=F
 DIIS: error= 2.94D-04 at cycle   6 NSaved=   6.
 NSaved= 6 IEnMin= 6 EnMin= -279.501362029501     IErMin= 6 ErrMin= 2.94D-04
 ErrMax= 2.94D-04  0.00D+00 EMaxC= 1.00D-01 BMatC= 1.68D-05 BMatP= 8.75D-05
 IDIUse=3 WtCom= 9.97D-01 WtEn= 2.94D-03
 Coeff-Com:  0.633D-03 0.121D-02 0.375D-02-0.130D+00-0.227D+00 0.135D+01
 Coeff-En:   0.000D+00 0.000D+00 0.000D+00 0.000D+00 0.000D+00 0.100D+01
 Coeff:      0.631D-03 0.121D-02 0.373D-02-0.130D+00-0.226D+00 0.135D+01
 Gap=     0.501 Goal=   None    Shift=    0.000
 RMSDP=4.56D-05 MaxDP=1.26D-03 DE=-3.15D-04 OVMax= 5.55D-03

 Cycle   7  Pass 1  IDiag  1:
 E= -279.501435539841     Delta-E=       -0.000073510340 Rises=F Damp=F
 DIIS: error= 1.24D-04 at cycle   7 NSaved=   7.
 NSaved= 7 IEnMin= 7 EnMin= -279.501435539841     IErMin= 7 ErrMin= 1.24D-04
 ErrMax= 1.24D-04  0.00D+00 EMaxC= 1.00D-01 BMatC= 4.65D-06 BMatP= 1.68D-05
 IDIUse=3 WtCom= 9.99D-01 WtEn= 1.24D-03
 Coeff-Com: -0.940D-03 0.137D-01 0.265D-01-0.253D-01-0.291D+00 0.400D+00
 Coeff-Com:  0.877D+00
 Coeff-En:   0.000D+00 0.000D+00 0.000D+00 0.000D+00 0.000D+00 0.000D+00
 Coeff-En:   0.100D+01
 Coeff:     -0.938D-03 0.137D-01 0.265D-01-0.253D-01-0.290D+00 0.399D+00
 Coeff:      0.877D+00
 Gap=     0.501 Goal=   None    Shift=    0.000
 RMSDP=1.34D-05 MaxDP=3.86D-04 DE=-7.35D-05 OVMax= 1.56D-03

 Cycle   8  Pass 1  IDiag  1:
 E= -279.501444671081     Delta-E=       -0.000009131241 Rises=F Damp=F
 DIIS: error= 5.89D-05 at cycle   8 NSaved=   8.
 NSaved= 8 IEnMin= 8 EnMin= -279.501444671081     IErMin= 8 ErrMin= 5.89D-05
 ErrMax= 5.89D-05  0.00D+00 EMaxC= 1.00D-01 BMatC= 6.09D-07 BMatP= 4.65D-06
 IDIUse=1 WtCom= 1.00D+00 WtEn= 0.00D+00
 Coeff-Com: -0.451D-03 0.348D-02 0.760D-02 0.277D-01-0.415D-01-0.196D+00
 Coeff-Com:  0.161D+00 0.104D+01
 Coeff:     -0.451D-03 0.348D-02 0.760D-02 0.277D-01-0.415D-01-0.196D+00
 Coeff:      0.161D+00 0.104D+01
 Gap=     0.500 Goal=   None    Shift=    0.000
 RMSDP=7.02D-06 MaxDP=2.04D-04 DE=-9.13D-06 OVMax= 7.65D-04

 Cycle   9  Pass 1  IDiag  1:
 E= -279.501446483689     Delta-E=       -0.000001812607 Rises=F Damp=F
 DIIS: error= 1.53D-05 at cycle   9 NSaved=   9.
 NSaved= 9 IEnMin= 9 EnMin= -279.501446483689     IErMin= 9 ErrMin= 1.53D-05
 ErrMax= 1.53D-05  0.00D+00 EMaxC= 1.00D-01 BMatC= 6.89D-08 BMatP= 6.09D-07
 IDIUse=1 WtCom= 1.00D+00 WtEn= 0.00D+00
 Coeff-Com:  0.121D-03-0.172D-02-0.304D-02-0.197D-02 0.340D-01-0.297D-03
 Coeff-Com: -0.163D+00-0.106D+00 0.124D+01
 Coeff:      0.121D-03-0.172D-02-0.304D-02-0.197D-02 0.340D-01-0.297D-03
 Coeff:     -0.163D+00-0.106D+00 0.124D+01
 Gap=     0.500 Goal=   None    Shift=    0.000
 RMSDP=1.95D-06 MaxDP=6.61D-05 DE=-1.81D-06 OVMax= 1.76D-04

 Cycle  10  Pass 1  IDiag  1:
 E= -279.501446644543     Delta-E=       -0.000000160854 Rises=F Damp=F
 DIIS: error= 4.12D-06 at cycle  10 NSaved=  10.
 NSaved=10 IEnMin=10 EnMin= -279.501446644543     IErMin=10 ErrMin= 4.12D-06
 ErrMax= 4.12D-06  0.00D+00 EMaxC= 1.00D-01 BMatC= 5.63D-09 BMatP= 6.89D-08
 IDIUse=1 WtCom= 1.00D+00 WtEn= 0.00D+00
 Coeff-Com:  0.317D-04-0.250D-03-0.333D-03-0.274D-02 0.171D-02 0.197D-01
 Coeff-Com: -0.127D-01-0.755D-01-0.791D-01 0.115D+01
 Coeff:      0.317D-04-0.250D-03-0.333D-03-0.274D-02 0.171D-02 0.197D-01
 Coeff:     -0.127D-01-0.755D-01-0.791D-01 0.115D+01
 Gap=     0.500 Goal=   None    Shift=    0.000
 RMSDP=5.14D-07 MaxDP=2.11D-05 DE=-1.61D-07 OVMax= 4.24D-05

 Cycle  11  Pass 1  IDiag  1:
 E= -279.501446657303     Delta-E=       -0.000000012760 Rises=F Damp=F
 DIIS: error= 2.05D-06 at cycle  11 NSaved=  11.
 NSaved=11 IEnMin=11 EnMin= -279.501446657303     IErMin=11 ErrMin= 2.05D-06
 ErrMax= 2.05D-06  0.00D+00 EMaxC= 1.00D-01 BMatC= 6.70D-10 BMatP= 5.63D-09
 IDIUse=1 WtCom= 1.00D+00 WtEn= 0.00D+00
 Coeff-Com: -0.213D-04 0.245D-03 0.486D-03 0.539D-03-0.430D-02-0.356D-02
 Coeff-Com:  0.205D-01 0.319D-01-0.139D+00-0.182D+00 0.128D+01
 Coeff:     -0.213D-04 0.245D-03 0.486D-03 0.539D-03-0.430D-02-0.356D-02
 Coeff:      0.205D-01 0.319D-01-0.139D+00-0.182D+00 0.128D+01
 Gap=     0.500 Goal=   None    Shift=    0.000
 RMSDP=1.81D-07 MaxDP=6.76D-06 DE=-1.28D-08 OVMax= 1.74D-05

 Cycle  12  Pass 1  IDiag  1:
 E= -279.501446659143     Delta-E=       -0.000000001840 Rises=F Damp=F
 DIIS: error= 6.01D-07 at cycle  12 NSaved=  12.
 NSaved=12 IEnMin=12 EnMin= -279.501446659143     IErMin=12 ErrMin= 6.01D-07
 ErrMax= 6.01D-07  0.00D+00 EMaxC= 1.00D-01 BMatC= 7.23D-11 BMatP= 6.70D-10
 IDIUse=1 WtCom= 1.00D+00 WtEn= 0.00D+00
 Coeff-Com:  0.121D-05-0.291D-04-0.624D-04 0.185D-03 0.108D-02-0.228D-02
 Coeff-Com: -0.413D-02 0.538D-02 0.419D-01-0.112D+00-0.283D+00 0.135D+01
 Coeff:      0.121D-05-0.291D-04-0.624D-04 0.185D-03 0.108D-02-0.228D-02
 Coeff:     -0.413D-02 0.538D-02 0.419D-01-0.112D+00-0.283D+00 0.135D+01
 Gap=     0.500 Goal=   None    Shift=    0.000
 RMSDP=7.24D-08 MaxDP=2.93D-06 DE=-1.84D-09 OVMax= 6.68D-06

 Cycle  13  Pass 1  IDiag  1:
 E= -279.501446659374     Delta-E=       -0.000000000231 Rises=F Damp=F
 DIIS: error= 1.73D-07 at cycle  13 NSaved=  13.
 NSaved=13 IEnMin=13 EnMin= -279.501446659374     IErMin=13 ErrMin= 1.73D-07
 ErrMax= 1.73D-07  0.00D+00 EMaxC= 1.00D-01 BMatC= 4.10D-12 BMatP= 7.23D-11
 IDIUse=1 WtCom= 1.00D+00 WtEn= 0.00D+00
 Coeff-Com:  0.128D-05-0.140D-04-0.222D-04-0.908D-04 0.119D-03 0.766D-03
 Coeff-Com: -0.792D-03-0.331D-02 0.371D-03 0.413D-01-0.342D-01-0.331D+00
 Coeff-Com:  0.133D+01
 Coeff:      0.128D-05-0.140D-04-0.222D-04-0.908D-04 0.119D-03 0.766D-03
 Coeff:     -0.792D-03-0.331D-02 0.371D-03 0.413D-01-0.342D-01-0.331D+00
 Coeff:      0.133D+01
 Gap=     0.500 Goal=   None    Shift=    0.000
 RMSDP=1.94D-08 MaxDP=5.64D-07 DE=-2.31D-10 OVMax= 1.58D-06

 Cycle  14  Pass 1  IDiag  1:
 E= -279.501446659387     Delta-E=       -0.000000000012 Rises=F Damp=F
 DIIS: error= 2.44D-08 at cycle  14 NSaved=  14.
 NSaved=14 IEnMin=14 EnMin= -279.501446659387     IErMin=14 ErrMin= 2.44D-08
 ErrMax= 2.44D-08  0.00D+00 EMaxC= 1.00D-01 BMatC= 2.02D-13 BMatP= 4.10D-12
 IDIUse=1 WtCom= 1.00D+00 WtEn= 0.00D+00
 Coeff-Com: -0.193D-06 0.317D-05 0.559D-05 0.473D-05-0.829D-04 0.435D-04
 Coeff-Com:  0.278D-03 0.241D-03-0.244D-02 0.129D-02 0.171D-01-0.248D-01
 Coeff-Com: -0.203D+00 0.121D+01
 Coeff:     -0.193D-06 0.317D-05 0.559D-05 0.473D-05-0.829D-04 0.435D-04
 Coeff:      0.278D-03 0.241D-03-0.244D-02 0.129D-02 0.171D-01-0.248D-01
 Coeff:     -0.203D+00 0.121D+01
 Gap=     0.500 Goal=   None    Shift=    0.000
 RMSDP=3.86D-09 MaxDP=9.32D-08 DE=-1.23D-11 OVMax= 3.48D-07

 SCF Done:  E(RHF) =  -279.501446659     A.U. after   14 cycles
            NFock= 14  Conv=0.39D-08     -V/T= 2.0024
 KE= 2.788364761189D+02 PE=-8.947284256216D+02 EE= 2.196819853498D+02
 Leave Link  502 at Mon Feb 21 20:50:41 2022, MaxMem= 16106127360 cpu:              56.0 elap:               3.6
 (Enter /sw/contrib/gaussian/g16/B01/g16/l801.exe)
 ExpMin= 2.53D-02 ExpMax= 1.53D+04 ExpMxC= 5.22D+02 IAcc=3 IRadAn=         5 AccDes= 0.00D+00
 HarFok:  IExCor=  205 AccDes= 0.00D+00 IRadAn=         5 IDoV=-2 UseB2=F ITyADJ=14
 ICtDFT= 12500011 ScaDFX=  1.000000  1.000000  1.000000  1.000000
 Largest valence mixing into a core orbital is  2.08D-04
 Largest core mixing into a valence orbital is  3.61D-05
 Range of M.O.s used for correlation:     5   207
 NBasis=   207 NAE=    16 NBE=    16 NFC=     4 NFV=     0
 NROrb=    203 NOA=    12 NOB=    12 NVA=   191 NVB=   191

 **** Warning!!: The largest alpha MO coefficient is  0.17752310D+02

 Leave Link  801 at Mon Feb 21 20:50:41 2022, MaxMem= 16106127360 cpu:               3.1 elap:               0.2
 (Enter /sw/contrib/gaussian/g16/B01/g16/l906.exe)
 Frozen-core derivative calculation, NFC=   4 NFV=   0.
 FulOut=F Deriv=T AODrv=T NAtomX=     5
   MMem=           0  MDisk=          12 MDiskD=          12
  W3Min=      811440 MinDsk=     2425030 NBas6D=         245
 NBas2D=       30762    NTT=       30135    LW2=     7400000
    MDV= 16105574311 MDiskM=      328644 NBas2p=       30702
 Disk-based method using ON**2 memory for 12 occupieds at a time.
 Permanent disk used for amplitudes=    11516536 words.
 Estimated scratch disk usage=   321251614 words.
 IMap=   1   2   3   4   5   6   7   8   9  10  11  12  13  14  15  16
 Actual    scratch disk usage=   310331678 words.
 JobTyp=1 Pass  1:  I=   5 to  16 NPSUse= 28 ParTrn=T ParDer=T DoDerP=T.
 (rs|ai) integrals will be sorted in core.
 Spin components of T(2) and E(2):
     alpha-alpha T2 =       0.3405864503D-01 E2=     -0.1224321729D+00
     alpha-beta  T2 =       0.1869258987D+00 E2=     -0.7002876160D+00
     beta-beta   T2 =       0.3405864503D-01 E2=     -0.1224321729D+00
 The integrals were generated   1 times.
 ANorm=    0.1120287101D+01
 E2 =    -0.9451519618D+00 EUMP2 =    -0.28044659862123D+03
 Leave Link  906 at Mon Feb 21 20:52:18 2022, MaxMem= 16106127360 cpu:            2708.6 elap:              96.9
 (Enter /sw/contrib/gaussian/g16/B01/g16/l1101.exe)
 Using compressed Sx but separate Hx and Fx, NAtomX=     5.
 Will process      6 centers per pass.
 Leave Link 1101 at Mon Feb 21 20:52:19 2022, MaxMem= 16106127360 cpu:               6.6 elap:               0.3
 (Enter /sw/contrib/gaussian/g16/B01/g16/l1102.exe)
 Leave Link 1102 at Mon Feb 21 20:52:19 2022, MaxMem= 16106127360 cpu:               0.5 elap:               0.0
 (Enter /sw/contrib/gaussian/g16/B01/g16/l1110.exe)
 Forming Gx(P) for the SCF density, NAtomX=     5.
 Integral derivatives from FoFJK, PRISM(SPDF).
 Do as many integral derivatives as possible in FoFJK.
 G2DrvN: MDV=   16106126844.
 G2DrvN: will do     6 centers at a time, making    1 passes.
 Calling FoFCou, ICntrl=  3107 FMM=F I1Cent=   0 AccDes= 0.00D+00.
 FoFJK:  IHMeth= 1 ICntrl=    3107 DoSepK=F KAlg= 0 I1Cent=           0 FoldK=F
 IRaf=         0 NMat=       1 IRICut=       1 DoRegI=T DoRafI=F ISym2E= 1 IDoP0=0 IntGTp=1.
 FoFCou: FMM=F IPFlag=           0 FMFlag=      100000 FMFlg1=           0
         NFxFlg=           0 DoJE=F BraDBF=F KetDBF=F FulRan=T
         wScrn=  0.000000 ICntrl=      3107 IOpCl=  0 I1Cent=           0 NGrid=           0
         NMat0=    1 NMatS0=      1 NMatT0=    0 NMatD0=    1 NMtDS0=    0 NMtDT0=    0
 Petite list used in FoFCou.
 End of G2Drv F.D. properties file   721 does not exist.
 End of G2Drv F.D. properties file   722 does not exist.
 End of G2Drv F.D. properties file   788 does not exist.
 Leave Link 1110 at Mon Feb 21 20:52:22 2022, MaxMem= 16106127360 cpu:              84.0 elap:               3.0
 (Enter /sw/contrib/gaussian/g16/B01/g16/l1002.exe)
 Minotr:  Closed shell wavefunction.
          IDoAtm=11111
          Frozen-core window.
          Direct CPHF calculation.
          Differentiating once with respect to electric field.
                with respect to dipole field.
          Differentiating once with respect to nuclear coordinates.
          Requested convergence is 1.0D-08 RMS, and 1.0D-07 maximum.
          Secondary convergence is 1.0D-12 RMS, and 1.0D-12 maximum.
          NewPWx=T KeepS1=T KeepF1=T KeepIn=T MapXYZ=F SortEE=F KeepMc=T.
 Keep R1 ints in memory in symmetry-blocked form, NReq=348888983.
 FoFCou: FMM=F IPFlag=           0 FMFlag=           0 FMFlg1=           0
         NFxFlg=           0 DoJE=F BraDBF=F KetDBF=F FulRan=T
         wScrn=  0.000000 ICntrl=       600 IOpCl=  0 I1Cent=           0 NGrid=           0
         NMat0=    1 NMatS0=  21528 NMatT0=    0 NMatD0=    1 NMtDS0=    0 NMtDT0=    0
 Petite list used in FoFCou.
          MDV=   16106127360 using IRadAn=       1.
          Solving linear equations simultaneously, MaxMat=       0.
          There are    18 degrees of freedom in the 1st order CPHF.  IDoFFX=6 NUNeed=    18.
     15 vectors produced by pass  0 Test12= 1.70D-14 5.56D-09 XBig12= 8.27D+00 1.04D+00.
 AX will form    15 AO Fock derivatives at one time.
     15 vectors produced by pass  1 Test12= 1.70D-14 5.56D-09 XBig12= 1.33D+00 2.62D-01.
     15 vectors produced by pass  2 Test12= 1.70D-14 5.56D-09 XBig12= 1.41D-01 9.69D-02.
     15 vectors produced by pass  3 Test12= 1.70D-14 5.56D-09 XBig12= 4.94D-03 1.11D-02.
     15 vectors produced by pass  4 Test12= 1.70D-14 5.56D-09 XBig12= 9.84D-05 1.88D-03.
     15 vectors produced by pass  5 Test12= 1.70D-14 5.56D-09 XBig12= 1.38D-06 1.68D-04.
     15 vectors produced by pass  6 Test12= 1.70D-14 5.56D-09 XBig12= 1.07D-08 1.45D-05.
     13 vectors produced by pass  7 Test12= 1.70D-14 5.56D-09 XBig12= 7.90D-11 1.26D-06.
      3 vectors produced by pass  8 Test12= 1.70D-14 5.56D-09 XBig12= 5.50D-13 1.18D-07.
      2 vectors produced by pass  9 Test12= 1.70D-14 5.56D-09 XBig12= 3.62D-15 9.81D-09.
 InvSVY:  IOpt=1 It=  1 EMax= 9.99D-16
 Solved reduced A of dimension   123 with    15 vectors.
 FullF1:  Do perturbations      1 to      18.
 Saving first derivative matrices.
 End of Minotr F.D. properties file   721 does not exist.
 End of Minotr F.D. properties file   722 does not exist.
 End of Minotr F.D. properties file   788 does not exist.
 Leave Link 1002 at Mon Feb 21 20:52:25 2022, MaxMem= 16106127360 cpu:              81.0 elap:               2.9
 (Enter /sw/contrib/gaussian/g16/B01/g16/l811.exe)
 MDV= 16106127360.
 Form MO integral derivatives with frozen-active canonical formalism.
 MOERI=1 MOERIx=1 NAtoms=     5 NAtomX=     5.
 Discarding MO integrals.
 MO basis two electron integral derivatives will not be stored on disk.
 IAlg= 3 DoFC=T DoPWx=T Debug=F.
 Frozen-core window:  NFC=   4 NFV=   0.
 Reordered first order wavefunction length =     18678272
 In DefCFB: NBatch=  1 ICI= 16 ICA=191 LFMax= 96
            Large arrays: LIAPS=   619940160 LIARS=   288257200 words.
 In StABat: MaxSiz= 55 MinSiz= 25 NAtomB=  5
 DoIAMN: NPSUse= 28.
 Leave Link  811 at Mon Feb 21 20:53:45 2022, MaxMem= 16106127360 cpu:            2241.1 elap:              80.2
 (Enter /sw/contrib/gaussian/g16/B01/g16/l804.exe)
 Frozen-core window:  NFC=   4 NFV=   0.
 Closed-shell transformation, MDV= 16106127360 ITran=4 ISComp=1.
 Semi-Direct transformation.
 ModeAB=           2 MOrb=            16 LenV=   16104923079
 LASXX=     67341636 LTotXX=    67341636 LenRXX=    67341636
 LTotAB=    68301760 MaxLAS=    99807120 LenRXY=    99807120
 NonZer=   134683272 LenScr=   202817536 LnRSAI=           0
 LnScr1=           0 LExtra=           0 Total=    369966292
 MaxDsk=          -1 SrtSym=           F ITran=            4
 DoSDTr:  NPSUse= 28
 JobTyp=0 Pass  1:  I=   1 to  16.
 (rs|ai) integrals will be sorted in core.
 Complete sort for first half transformation.
 First half transformation complete.
 Begin second half transformation for I=  10.
 Begin second half transformation for I=  10.
 Complete sort for second half transformation.
 Second half transformation complete.
 Spin components of T(2) and E(2):
     alpha-alpha T2 =       0.3405864503D-01 E2=     -0.1224321729D+00
     alpha-beta  T2 =       0.1869258987D+00 E2=     -0.7002876160D+00
     beta-beta   T2 =       0.3405864503D-01 E2=     -0.1224321729D+00
 ANorm=    0.1584325212D+01
 E2 =    -0.9451519618D+00 EUMP2 =    -0.28044659862123D+03
 Leave Link  804 at Mon Feb 21 20:54:02 2022, MaxMem= 16106127360 cpu:             472.5 elap:              17.0
 (Enter /sw/contrib/gaussian/g16/B01/g16/l1002.exe)
 Minotr:  Closed shell wavefunction.
          Computing MP2/KS-MP2 derivatives.
          Using Z-Vector for PSCF gradient.
          Skipping F1 and S1 gradient terms here.
          IDoAtm=11111
          Frozen-core window.
          Using MO integrals in the linear equations.
          Forming densities via direct SCF.
          Differentiating once with respect to electric field.
                with respect to dipole field.
          Differentiating once with respect to nuclear coordinates.
          Using symmetry in CPHF.
          Requested convergence is 1.0D-10 RMS, and 1.0D-09 maximum.
          NewPWx=F KeepS1=T KeepF1=T KeepIn=T MapXYZ=F SortEE=F KeepMc=T.
          MDV=   16106127360 using IRadAn=       5.
          Solving linear equations separately, MaxMat=       0.
          There are     1 degrees of freedom in the 1st order CPHF.  IDoFFX=0 NUNeed=     1.
 FoFJK:  IHMeth= 1 ICntrl=       0 DoSepK=F KAlg= 0 I1Cent=           0 FoldK=F
 IRaf=         0 NMat=       1 IRICut=       1 DoRegI=T DoRafI=F ISym2E= 0 IDoP0=0 IntGTp=1.
 FoFCou: FMM=F IPFlag=           0 FMFlag=      100000 FMFlg1=           0
         NFxFlg=           0 DoJE=F BraDBF=F KetDBF=F FulRan=T
         wScrn=  0.000000 ICntrl=         0 IOpCl=  0 I1Cent=           0 NGrid=           0
         NMat0=    1 NMatS0=      1 NMatT0=    0 NMatD0=    1 NMtDS0=    0 NMtDT0=    0
 Symmetry not used in FoFCou.
 LinEq1:  Iter=  0 NonCon=     1 RMS=5.98D-03 Max=1.34D-01 NDo=     1
 LinEq1:  Iter=  1 NonCon=     1 RMS=1.92D-03 Max=3.84D-02 NDo=     1
 LinEq1:  Iter=  2 NonCon=     1 RMS=8.73D-04 Max=1.41D-02 NDo=     1
 LinEq1:  Iter=  3 NonCon=     1 RMS=3.88D-04 Max=7.83D-03 NDo=     1
 LinEq1:  Iter=  4 NonCon=     1 RMS=1.21D-04 Max=1.95D-03 NDo=     1
 LinEq1:  Iter=  5 NonCon=     1 RMS=4.74D-05 Max=7.55D-04 NDo=     1
 LinEq1:  Iter=  6 NonCon=     1 RMS=2.10D-05 Max=2.39D-04 NDo=     1
 LinEq1:  Iter=  7 NonCon=     1 RMS=8.36D-06 Max=1.58D-04 NDo=     1
 LinEq1:  Iter=  8 NonCon=     1 RMS=3.53D-06 Max=3.45D-05 NDo=     1
 LinEq1:  Iter=  9 NonCon=     1 RMS=9.49D-07 Max=1.32D-05 NDo=     1
 LinEq1:  Iter= 10 NonCon=     1 RMS=1.86D-07 Max=2.01D-06 NDo=     1
 LinEq1:  Iter= 11 NonCon=     1 RMS=3.44D-08 Max=3.52D-07 NDo=     1
 LinEq1:  Iter= 12 NonCon=     1 RMS=8.32D-09 Max=1.25D-07 NDo=     1
 LinEq1:  Iter= 13 NonCon=     1 RMS=1.51D-09 Max=2.58D-08 NDo=     1
 LinEq1:  Iter= 14 NonCon=     1 RMS=2.74D-10 Max=3.83D-09 NDo=     1
 LinEq1:  Iter= 15 NonCon=     0 RMS=4.85D-11 Max=5.59D-10 NDo=     1
 Linear equations converged to 1.000D-10 1.000D-09 after    15 iterations.
 End of Minotr F.D. properties file   721 does not exist.
 End of Minotr F.D. properties file   722 does not exist.
 End of Minotr F.D. properties file   788 does not exist.
 Leave Link 1002 at Mon Feb 21 20:54:04 2022, MaxMem= 16106127360 cpu:              64.4 elap:               2.4
 (Enter /sw/contrib/gaussian/g16/B01/g16/l1102.exe)
 Use density number 2.
 Symmetrizing basis deriv contribution to polar:
 IMax=3 JMax=2 DiffMx= 0.00D+00
 Leave Link 1102 at Mon Feb 21 20:54:04 2022, MaxMem= 16106127360 cpu:               0.6 elap:               0.0
 (Enter /sw/contrib/gaussian/g16/B01/g16/l1110.exe)
 Forming Gx(P) for generalized density number  2 NAtomX=     5.
 Integral derivatives from FoFJK, PRISM(SPDF).
 Do as many integral derivatives as possible in FoFJK.
 G2DrvN: MDV=   16106126844.
 G2DrvN: will do     6 centers at a time, making    1 passes.
 Calling FoFCou, ICntrl=  3107 FMM=F I1Cent=   0 AccDes= 0.00D+00.
 FoFJK:  IHMeth= 1 ICntrl=    3107 DoSepK=F KAlg= 0 I1Cent=           0 FoldK=F
 IRaf=         0 NMat=       1 IRICut=       1 DoRegI=T DoRafI=F ISym2E= 1 IDoP0=0 IntGTp=1.
 FoFCou: FMM=F IPFlag=           0 FMFlag=      100000 FMFlg1=           0
         NFxFlg=           0 DoJE=F BraDBF=F KetDBF=F FulRan=T
         wScrn=  0.000000 ICntrl=      3107 IOpCl=  0 I1Cent=           0 NGrid=           0
         NMat0=    1 NMatS0=      1 NMatT0=    0 NMatD0=    1 NMtDS0=    0 NMtDT0=    0
 Petite list used in FoFCou.
 End of G2Drv F.D. properties file   721 does not exist.
 End of G2Drv F.D. properties file   722 does not exist.
 End of G2Drv F.D. properties file   788 does not exist.
 Leave Link 1110 at Mon Feb 21 20:54:07 2022, MaxMem= 16106127360 cpu:              83.1 elap:               3.0
 (Enter /sw/contrib/gaussian/g16/B01/g16/l1112.exe)
 MP22nd: MDV=   16106127360
 This link is doing NAtomX=     5 total of    18 degrees of freedom.
 Using ON3 I/O method in MakUI.
 Frozen-core window:  NFC=   4 NFV=   0.
 Using Ix for Sx.
 Use MO integrals over full window.
 Using OV2 memory method for fx*t*t/D, MaxI=    16 DoOO2=F NP=  28.
 R2 and R3 integrals will be kept in memory, NReq=   915591705.
 FoFCou: FMM=F IPFlag=           0 FMFlag=           0 FMFlg1=           0
         NFxFlg=           0 DoJE=F BraDBF=F KetDBF=F FulRan=T
         wScrn=  0.000000 ICntrl=       600 IOpCl=  0 I1Cent=           0 NGrid=           0
         NMat0=    1 NMatS0=      1 NMatT0=    0 NMatD0=    1 NMtDS0=    0 NMtDT0=    0
 Symmetry not used in FoFCou.
 DD1Dir will call FoFMem   1 times, MxPair=       272
 NAB=   136 NAA=     0 NBB=     0.
 Symmetry is being used.
 FoFJK:  IHMeth= 1 ICntrl=       0 DoSepK=F KAlg= 0 I1Cent=           0 FoldK=F
 IRaf=         0 NMat=      18 IRICut=      45 DoRegI=T DoRafI=T ISym2E= 2 IDoP0=3 IntGTp=3.
 Discarding MO integrals.
 Leave Link 1112 at Mon Feb 21 20:54:45 2022, MaxMem= 16106127360 cpu:            1041.2 elap:              37.6
 (Enter /sw/contrib/gaussian/g16/B01/g16/l601.exe)
 Copying SCF densities to generalized density rwf, IOpCl= 0 IROHF=0.

 **********************************************************************

            Population analysis using the MP2 Density.

 **********************************************************************

 Orbital symmetries:
       Occupied  (A') (A') (A') (A') (A') (A') (A') (A') (A') (A')
                 (A") (A') (A") (A') (A") (A')
       Virtual   (A') (A") (A') (A') (A') (A") (A') (A') (A") (A')
                 (A") (A') (A') (A') (A") (A') (A') (A") (A') (A')
                 (A') (A') (A') (A') (A") (A') (A') (A") (A') (A')
                 (A") (A') (A") (A') (A') (A") (A') (A') (A") (A')
                 (A") (A') (A") (A') (A') (A") (A') (A') (A") (A')
                 (A") (A') (A') (A') (A") (A') (A") (A') (A") (A')
                 (A') (A') (A") (A') (A') (A") (A') (A") (A') (A')
                 (A") (A') (A') (A") (A") (A') (A') (A") (A') (A')
                 (A') (A") (A') (A") (A') (A") (A') (A") (A') (A')
                 (A") (A') (A') (A") (A') (A") (A') (A") (A') (A')
                 (A") (A') (A") (A') (A') (A") (A') (A') (A") (A')
                 (A") (A') (A') (A') (A") (A') (A') (A') (A") (A')
                 (A") (A') (A") (A') (A') (A") (A") (A') (A") (A')
                 (A') (A') (A') (A") (A") (A") (A') (A') (A') (A')
                 (A") (A') (A") (A') (A') (A") (A') (A') (A') (A')
                 (A") (A') (A') (A") (A') (A") (A') (A") (A') (A")
                 (A') (A") (A') (A') (A") (A") (A") (A') (A") (A')
                 (A") (A') (A") (A') (A") (A') (A") (A") (A') (A')
                 (A') (A') (A') (A') (A') (A') (A') (A') (A') (A')
                 (A')
 The electronic state is 1-A'.
 Alpha  occ. eigenvalues --  -20.69145 -20.68477 -20.66083 -15.81235  -1.62292
 Alpha  occ. eigenvalues --   -1.49673  -1.25549  -0.94772  -0.77350  -0.75873
 Alpha  occ. eigenvalues --   -0.71154  -0.67972  -0.62098  -0.59059  -0.48586
 Alpha  occ. eigenvalues --   -0.47080
 Alpha virt. eigenvalues --    0.02952   0.07225   0.08567   0.10173   0.13403
 Alpha virt. eigenvalues --    0.13403   0.14403   0.15462   0.17811   0.19423
 Alpha virt. eigenvalues --    0.19976   0.20609   0.22081   0.23409   0.23720
 Alpha virt. eigenvalues --    0.26509   0.29444   0.30432   0.31070   0.34298
 Alpha virt. eigenvalues --    0.34994   0.38674   0.42142   0.43119   0.52607
 Alpha virt. eigenvalues --    0.53032   0.55907   0.58301   0.62675   0.63533
 Alpha virt. eigenvalues --    0.67408   0.68420   0.70846   0.71071   0.72456
 Alpha virt. eigenvalues --    0.72975   0.74604   0.78935   0.79138   0.80961
 Alpha virt. eigenvalues --    0.81220   0.83003   0.86829   0.90737   0.92162
 Alpha virt. eigenvalues --    0.92345   0.95676   0.98003   0.98434   1.01593
 Alpha virt. eigenvalues --    1.05217   1.05463   1.08164   1.11828   1.14037
 Alpha virt. eigenvalues --    1.18873   1.22356   1.23202   1.33819   1.34865
 Alpha virt. eigenvalues --    1.38384   1.45141   1.48805   1.51035   1.53900
 Alpha virt. eigenvalues --    1.56555   1.58008   1.61410   1.66347   1.66780
 Alpha virt. eigenvalues --    1.70453   1.79353   1.83313   1.83393   1.87592
 Alpha virt. eigenvalues --    1.91212   1.95554   1.99070   2.00950   2.07423
 Alpha virt. eigenvalues --    2.11889   2.13356   2.14846   2.22273   2.26107
 Alpha virt. eigenvalues --    2.26361   2.28986   2.31417   2.34036   2.38602
 Alpha virt. eigenvalues --    2.42181   2.42870   2.45691   2.46692   2.47582
 Alpha virt. eigenvalues --    2.50217   2.58981   2.59425   2.61675   2.62715
 Alpha virt. eigenvalues --    2.63496   2.66423   2.76187   2.83355   2.86330
 Alpha virt. eigenvalues --    2.87562   2.89460   2.90791   2.96438   3.02282
 Alpha virt. eigenvalues --    3.07277   3.11645   3.20483   3.23023   3.31400
 Alpha virt. eigenvalues --    3.34610   3.50730   3.64904   3.83855   3.84484
 Alpha virt. eigenvalues --    4.14774   4.15812   4.18284   4.25726   4.35541
 Alpha virt. eigenvalues --    4.39289   4.46331   4.51805   4.66773   4.70913
 Alpha virt. eigenvalues --    4.80808   4.81958   4.82691   4.89488   5.02159
 Alpha virt. eigenvalues --    5.07859   5.09922   5.14225   5.18484   5.24057
 Alpha virt. eigenvalues --    5.26967   5.31199   5.32844   5.35871   5.60976
 Alpha virt. eigenvalues --    5.67356   5.75374   5.82924   5.95807   6.16751
 Alpha virt. eigenvalues --    6.30660   6.34009   6.39374   6.49090   6.50169
 Alpha virt. eigenvalues --    6.61227   6.66761   6.69385   6.75682   6.76148
 Alpha virt. eigenvalues --    6.82613   6.90336   7.01238   7.05466   7.05688
 Alpha virt. eigenvalues --    7.08809   7.12606   7.14710   7.18062   7.22418
 Alpha virt. eigenvalues --    7.24077   7.30688   7.32472   7.34821   7.40022
 Alpha virt. eigenvalues --    7.43259   7.48639   7.60634   7.61574   7.62973
 Alpha virt. eigenvalues --    7.66107   7.78058   7.89426   8.09171   8.31405
 Alpha virt. eigenvalues --    8.40915   8.54527  13.37824  14.40970  15.15393
 Alpha virt. eigenvalues --   16.15036
          Condensed to atoms (all electrons):
               1          2          3          4          5
     1  H    0.589432   0.128779   0.019890   0.012291  -0.000689
     2  O    0.128779   8.317718  -0.171272  -0.091751   0.015200
     3  O    0.019890  -0.171272   8.469857  -0.135538  -0.033914
     4  N    0.012291  -0.091751  -0.135538   6.982837  -0.058009
     5  O   -0.000689   0.015200  -0.033914  -0.058009   8.270181
 Mulliken charges:
               1
     1  H    0.250298
     2  O   -0.198674
     3  O   -0.149023
     4  N    0.290169
     5  O   -0.192769
 Sum of Mulliken charges =  -0.00000
 Mulliken charges with hydrogens summed into heavy atoms:
               1
     2  O    0.051623
     3  O   -0.149023
     4  N    0.290169
     5  O   -0.192769
 APT charges:
               1
     1  H    0.300185
     2  O   -0.286652
     3  O   -0.505550
     4  N    0.886259
     5  O   -0.394242
 Sum of APT charges =  -0.00000
 APT charges with hydrogens summed into heavy atoms:
               1
     2  O    0.013533
     3  O   -0.505550
     4  N    0.886259
     5  O   -0.394242
 Electronic spatial extent (au):  <R**2>=            253.9978
 Charge=             -0.0000 electrons
 Dipole moment (field-independent basis, Debye):
    X=              0.5039    Y=              1.3781    Z=              0.0000  Tot=              1.4673
 Quadrupole moment (field-independent basis, Debye-Ang):
   XX=            -22.4255   YY=            -18.6247   ZZ=            -22.0172
   XY=              3.2893   XZ=              0.0000   YZ=              0.0000
 Traceless Quadrupole moment (field-independent basis, Debye-Ang):
   XX=             -1.4030   YY=              2.3978   ZZ=             -0.9947
   XY=              3.2893   XZ=              0.0000   YZ=              0.0000
 Octapole moment (field-independent basis, Debye-Ang**2):
  XXX=              2.9316  YYY=             11.3200  ZZZ=             -0.0000  XYY=              7.9504
  XXY=              6.5966  XXZ=              0.0000  XZZ=             -1.5698  YZZ=             -0.8615
  YYZ=              0.0000  XYZ=              0.0000
 Hexadecapole moment (field-independent basis, Debye-Ang**3):
 XXXX=           -158.2548 YYYY=            -90.8901 ZZZZ=            -18.2616 XXXY=            -36.9900
 XXXZ=             -0.0000 YYYX=            -31.0350 YYYZ=             -0.0000 ZZZX=             -0.0000
 ZZZY=             -0.0000 XXYY=            -33.9682 XXZZ=            -30.8562 YYZZ=            -20.8866
 XXYZ=              0.0000 YYXZ=              0.0000 ZZXY=            -15.2066
 N-N= 1.167085174935D+02 E-N=-8.955141713042D+02  KE= 2.801888730547D+02
 Symmetry A'   KE= 2.662209325946D+02
 Symmetry A"   KE= 1.396794046011D+01
  Exact polarizability:  34.036   9.598  30.460  -0.000  -0.000  17.953
 Approx polarizability:  28.967   5.281  23.664   0.000   0.000  15.534
 No NMR shielding tensors so no spin-rotation constants.
 Leave Link  601 at Mon Feb 21 20:54:45 2022, MaxMem= 16106127360 cpu:               4.6 elap:               0.2
 (Enter /sw/contrib/gaussian/g16/B01/g16/l701.exe)
 ... and contract with generalized density number  2.
 Compute integral second derivatives.
 Leave Link  701 at Mon Feb 21 20:54:45 2022, MaxMem= 16106127360 cpu:               5.5 elap:               0.2
 (Enter /sw/contrib/gaussian/g16/B01/g16/l702.exe)
 L702 exits ... SP integral derivatives will be done elsewhere.
 Leave Link  702 at Mon Feb 21 20:54:45 2022, MaxMem= 16106127360 cpu:               0.6 elap:               0.0
 (Enter /sw/contrib/gaussian/g16/B01/g16/l703.exe)
 Integral derivatives from FoFJK, PRISM(SPDF).
 Compute integral second derivatives, UseDBF=F ICtDFT=           0.
 Calling FoFJK, ICntrl=  10100127 FMM=F ISym2X=1 I1Cent= 0 IOpClX= 0 NMat=1 NMatS=1 NMatT=0.
 FoFJK:  IHMeth= 1 ICntrl=10100127 DoSepK=F KAlg= 0 I1Cent=           0 FoldK=F
 IRaf=         0 NMat=       1 IRICut=       1 DoRegI=T DoRafI=F ISym2E= 1 IDoP0=0 IntGTp=1.
 FoFCou: FMM=F IPFlag=           0 FMFlag=      100000 FMFlg1=         800
         NFxFlg=           0 DoJE=F BraDBF=F KetDBF=F FulRan=T
         wScrn=  0.000000 ICntrl=  10100127 IOpCl=  0 I1Cent=           0 NGrid=           0
         NMat0=    1 NMatS0=      1 NMatT0=    0 NMatD0=    1 NMtDS0=    0 NMtDT0=    0
 Petite list used in FoFCou.
 Leave Link  703 at Mon Feb 21 20:55:01 2022, MaxMem= 16106127360 cpu:             422.4 elap:              15.1
 (Enter /sw/contrib/gaussian/g16/B01/g16/l716.exe)
 Dipole        = 1.98250103D-01 5.42177870D-01 6.14042056D-32
 Polarizability= 3.40356671D+01 9.59792293D+00 3.04599118D+01
                -1.43621526D-30-2.02153377D-30 1.79530487D+01
 Full mass-weighted force constant matrix:
 Low frequencies --- -273.7399  -95.0636    0.0009    0.0015    0.0019   23.3569
 Low frequencies ---   37.1281  228.4119  340.6175
 ******    1 imaginary frequencies (negative Signs) ****** 
 Diagonal vibrational polarizability:
       14.6181501      26.7718097      45.2762035
 Harmonic frequencies (cm**-1), IR intensities (KM/Mole), Raman scattering
 activities (A**4/AMU), depolarization ratios for plane and unpolarized
 incident light, reduced masses (AMU), force constants (mDyne/A),
 and normal coordinates:
                      1                      2                      3
                     A"                     A"                     A'
 Frequencies --   -273.6923               226.9692               340.6145
 Red. masses --      1.1443                 9.9866                 8.5692
 Frc consts  --      0.0505                 0.3031                 0.5858
 IR Inten    --    124.3402                 1.1597                 6.9477
  Atom  AN      X      Y      Z        X      Y      Z        X      Y      Z
     1   1     0.00   0.00   1.00     0.00  -0.00  -0.60     0.55  -0.44   0.00
     2   8     0.00   0.00  -0.07     0.00  -0.00  -0.30    -0.09  -0.37   0.00
     3   8     0.00   0.00  -0.04     0.00   0.00   0.31    -0.14   0.44  -0.00
     4   7    -0.00  -0.00   0.06    -0.00  -0.00   0.52     0.03   0.25  -0.00
     5   8    -0.00  -0.00  -0.01    -0.00  -0.00  -0.43     0.16  -0.26   0.00
                      4                      5                      6
                     A'                     A'                     A'
 Frequencies --    440.1638               787.1140               966.0790
 Red. masses --     12.4919                12.9040                15.2930
 Frc consts  --      1.4260                 4.7103                 8.4094
 IR Inten    --    198.9571               176.1752                25.1092
  Atom  AN      X      Y      Z        X      Y      Z        X      Y      Z
     1   1     0.39   0.21   0.00    -0.34   0.19   0.00    -0.19  -0.04  -0.00
     2   8     0.33   0.22   0.00     0.42   0.08   0.00    -0.52   0.03   0.00
     3   8     0.19   0.42  -0.00    -0.07  -0.27  -0.00     0.75  -0.03  -0.00
     4   7    -0.35  -0.41  -0.00    -0.14   0.62  -0.00    -0.12   0.25  -0.00
     5   8    -0.23  -0.30   0.00    -0.20  -0.37   0.00    -0.11  -0.22   0.00
                      7                      8                      9
                     A'                     A'                     A'
 Frequencies --   1370.9614              1676.9009              3778.9364
 Red. masses --      1.1337                13.1471                 1.0676
 Frc consts  --      1.2555                21.7819                 8.9821
 IR Inten    --    155.5489               144.3979                83.6111
  Atom  AN      X      Y      Z        X      Y      Z        X      Y      Z
     1   1     0.99  -0.05   0.00    -0.35   0.01  -0.00     0.10   0.99  -0.00
     2   8    -0.03   0.05   0.00    -0.00  -0.04  -0.00    -0.01  -0.06  -0.00
     3   8    -0.02  -0.05  -0.00     0.00   0.15   0.00     0.00   0.00   0.00
     4   7     0.02   0.01  -0.00     0.70  -0.04   0.00    -0.00  -0.00   0.00
     5   8    -0.03  -0.01   0.00    -0.59  -0.08  -0.00     0.00   0.00  -0.00

 -------------------
 - Thermochemistry -
 -------------------
 Temperature   298.150 Kelvin.  Pressure   1.00000 Atm.
 Atom     1 has atomic number  1 and mass   1.00783
 Atom     2 has atomic number  8 and mass  15.99491
 Atom     3 has atomic number  8 and mass  15.99491
 Atom     4 has atomic number  7 and mass  14.00307
 Atom     5 has atomic number  8 and mass  15.99491
 Molecular mass:    62.99564 amu.
 Principal axes and moments of inertia in atomic units:
                           1         2         3
     Eigenvalues --    32.62966 362.53176 395.16142
           X            0.80698  -0.59057   0.00000
           Y            0.59057   0.80698   0.00000
           Z            0.00000  -0.00000   1.00000
 This molecule is an asymmetric top.
 Rotational symmetry number  1.
 Rotational temperatures (Kelvin)      2.65445     0.23891     0.21919
 Rotational constants (GHZ):          55.30983     4.97816     4.56710
    1 imaginary frequencies ignored.
 Zero-point vibrational energy      57347.4 (Joules/Mol)
                                   13.70636 (Kcal/Mol)
 Warning -- explicit consideration of   3 degrees of freedom as
           vibrations may cause significant error
 Vibrational temperatures:    326.56   490.07   633.30  1132.48  1389.97
          (Kelvin)           1972.51  2412.69  5437.05
 
 Zero-point correction=                           0.021842 (Hartree/Particle)
 Thermal correction to Energy=                    0.025974
 Thermal correction to Enthalpy=                  0.026918
 Thermal correction to Gibbs Free Energy=        -0.004295
 Sum of electronic and zero-point Energies=           -280.424756
 Sum of electronic and thermal Energies=              -280.420625
 Sum of electronic and thermal Enthalpies=            -280.419681
 Sum of electronic and thermal Free Energies=         -280.450893
 
                     E (Thermal)             CV                S
                      KCal/Mol        Cal/Mol-Kelvin    Cal/Mol-Kelvin
 Total                   16.299             11.983             65.692
 Electronic               0.000              0.000              0.000
 Translational            0.889              2.981             38.341
 Rotational               0.889              2.981             23.062
 Vibrational             14.521              6.022              4.289
 Vibration     1          0.651              1.800              1.903
 Vibration     2          0.720              1.594              1.209
 Vibration     3          0.800              1.383              0.826
                       Q            Log10(Q)             Ln(Q)
 Total Bot       0.944832D+02          1.975354          4.548422
 Total V=0       0.105242D+13         12.022188         27.682110
 Vib (Bot)       0.196437D-09         -9.706777        -22.350681
 Vib (Bot)    1  0.868919D+00         -0.061021         -0.140506
 Vib (Bot)    2  0.544934D+00         -0.263656         -0.607090
 Vib (Bot)    3  0.392691D+00         -0.405949         -0.934732
 Vib (V=0)       0.218804D+01          0.340056          0.783007
 Vib (V=0)    1  0.150251D+01          0.176816          0.407135
 Vib (V=0)    2  0.123956D+01          0.093269          0.214759
 Vib (V=0)    3  0.113577D+01          0.055291          0.127313
 Electronic      0.100000D+01          0.000000          0.000000
 Translational   0.196526D+08          7.293420         16.793719
 Rotational      0.244744D+05          4.388712         10.105383
 
                                                                title
                                                             IR Spectrum
 
     3                                                                      1         1                                              
     7                                                                      6         3             9     7           4  3   2       
     7                                                                      7         7             6     8           4  4   2       
     9                                                                      7         1             6     7           0  1   7       
 
     X                                                                      X         X             X     X           X  X   X       
     X                                                                      X         X             X     X           X              
     X                                                                      X         X             X     X           X              
     X                                                                      X         X                   X           X              
     X                                                                      X         X                   X           X              
     X                                                                      X         X                   X           X              
     X                                                                      X         X                   X           X              
     X                                                                      X         X                   X           X              
                                                                            X         X                   X           X              
                                                                            X         X                   X           X              
                                                                            X         X                   X           X              
                                                                            X         X                   X           X              
                                                                            X         X                   X           X              
                                                                            X         X                   X           X              
                                                                            X         X                   X           X              
                                                                                      X                   X           X              
                                                                                                          X           X              
                                                                                                          X           X              
                                                                                                                      X              
                                                                                                                      X              
 
 ***** Axes restored to original set *****
 -------------------------------------------------------------------
 Center     Atomic                   Forces (Hartrees/Bohr)
 Number     Number              X              Y              Z
 -------------------------------------------------------------------
      1        1           0.000342337   -0.000000000   -0.000026802
      2        8           0.000624326    0.000000000    0.001234394
      3        8           0.004023837   -0.000000000   -0.000861720
      4        7          -0.004899601    0.000000000    0.004995506
      5        8          -0.000090899   -0.000000000   -0.005341377
 -------------------------------------------------------------------
 Cartesian Forces:  Max     0.005341377 RMS     0.002535942
 -----------------------------------------------------------------------------------------------
                       Internal Coordinate Forces (Hartree/Bohr or radian)
  Cent   Atom   N1       Length/X         N2         Alpha/Y        N3         Beta/Z          J
 -----------------------------------------------------------------------------------------------
      1  H 
      2  O        1   0.000027(     1)
      3  O        2  -0.001118(     2)      1  -0.000627(     5)
      4  N        3  -0.000754(     3)      2  -0.002313(     6)      1  -0.000000(     8)     0
      5  O        4  -0.001536(     4)      3  -0.011320(     7)      2  -0.000000(     9)     0
 -----------------------------------------------------------------------------------------------
 Internal  Forces:  Max     0.011319933 RMS     0.003916630
 Force constants in Cartesian coordinates: 
                1             2             3             4             5 
      1  0.646414D-01
      2  0.000000D+00 -0.242381D-02
      3  0.515720D-02  0.000000D+00  0.512429D+00
      4 -0.358736D-01  0.000000D+00 -0.162636D-01  0.272270D+00
      5  0.000000D+00  0.320705D-02  0.000000D+00  0.000000D+00  0.209235D-02
      6  0.483824D-01  0.000000D+00 -0.508575D+00  0.326240D-01  0.000000D+00
      7 -0.183552D-01  0.000000D+00  0.126694D-01 -0.220683D+00  0.000000D+00
      8  0.000000D+00  0.942536D-03  0.000000D+00  0.000000D+00 -0.629501D-02
      9 -0.531452D-01  0.000000D+00 -0.343908D-03 -0.193142D-01  0.000000D+00
     10 -0.946295D-02  0.000000D+00 -0.490419D-02 -0.163404D-01  0.000000D+00
     11  0.000000D+00 -0.275070D-02  0.000000D+00  0.000000D+00 -0.538762D-02
     12  0.525157D-02  0.000000D+00 -0.503822D-02  0.113391D-01  0.000000D+00
     13 -0.949640D-03  0.000000D+00  0.334117D-02  0.627015D-03  0.000000D+00
     14  0.000000D+00  0.102491D-02  0.000000D+00  0.000000D+00  0.638323D-02
     15 -0.564601D-02  0.000000D+00  0.152858D-02 -0.838533D-02  0.000000D+00
                6             7             8             9            10 
      6  0.594746D+00
      7 -0.208688D-01  0.339766D+00
      8  0.000000D+00  0.000000D+00  0.316002D-02
      9 -0.786428D-01  0.316127D-01  0.000000D+00  0.178557D+00
     10 -0.532549D-01 -0.805596D-01  0.000000D+00  0.178363D+00  0.827163D+00
     11  0.000000D+00  0.000000D+00  0.111647D-01  0.000000D+00  0.000000D+00
     12  0.166393D-01  0.640641D-01  0.000000D+00 -0.791919D-01 -0.762095D-02
     13 -0.688277D-02 -0.201687D-01  0.000000D+00 -0.137516D+00 -0.720800D+00
     14  0.000000D+00  0.000000D+00 -0.897226D-02  0.000000D+00  0.000000D+00
     15 -0.241674D-01 -0.874774D-01  0.000000D+00 -0.203785D-01 -0.112583D+00
               11            12            13            14            15 
     11  0.476662D-02
     12  0.000000D+00  0.189593D+00
     13  0.000000D+00 -0.730338D-01  0.741291D+00
     14 -0.779302D-02  0.000000D+00  0.000000D+00  0.935714D-02
     15  0.000000D+00 -0.122002D+00  0.214092D+00  0.000000D+00  0.165020D+00
 Force constants in internal coordinates: 
                1             2             3             4             5 
      1  0.512429D+00
      2 -0.104997D-01  0.280420D+00
      3  0.362596D-02  0.171728D-02  0.114125D+00
      4 -0.363045D-02  0.534030D-02  0.150814D+00  0.810672D+00
      5  0.978572D-02  0.651719D-01  0.228311D-02  0.447662D-02  0.216787D+00
      6  0.475217D-02  0.582812D-01  0.416309D-01  0.200455D-01  0.312470D-01
      7 -0.125108D-02  0.355168D-01  0.236893D-01  0.764330D-01  0.209739D-01
      8  0.000000D+00  0.000000D+00  0.000000D+00  0.000000D+00  0.000000D+00
      9  0.000000D+00  0.000000D+00  0.000000D+00  0.000000D+00  0.000000D+00
                6             7             8             9 
      6  0.282837D+00
      7  0.938334D-01  0.464707D+00
      8  0.000000D+00  0.000000D+00 -0.785389D-02
      9  0.000000D+00  0.000000D+00 -0.385595D-02  0.409368D-01
 Leave Link  716 at Mon Feb 21 20:55:01 2022, MaxMem= 16106127360 cpu:               0.7 elap:               0.0
 (Enter /sw/contrib/gaussian/g16/B01/g16/l103.exe)

 GradGradGradGradGradGradGradGradGradGradGradGradGradGradGradGradGradGrad
 Berny optimization.
 Search for a local minimum.
 Step number   1 out of a maximum of    2
 All quantities printed in internal units (Hartrees-Bohrs-Radians)
 Second derivative matrix not updated -- analytic derivatives used.
 The second derivative matrix:
                          r1        r2        r3        r4        a1
           r1           0.51243
           r2          -0.01050   0.28042
           r3           0.00363   0.00172   0.11413
           r4          -0.00363   0.00534   0.15081   0.81067
           a1           0.00979   0.06517   0.00228   0.00448   0.21679
           a2           0.00475   0.05828   0.04163   0.02005   0.03125
           a3          -0.00125   0.03552   0.02369   0.07643   0.02097
           d1          -0.00000   0.00000  -0.00000  -0.00000   0.00000
           d2           0.00000   0.00000  -0.00000  -0.00000   0.00000
                          a2        a3        d1        d2
           a2           0.28284
           a3           0.09383   0.46471
           d1           0.00000   0.00000  -0.00785
           d2           0.00000   0.00000  -0.00386   0.04094
 ITU=  0
     Eigenvalues ---   -0.00816   0.04124   0.07562   0.17526   0.22591
     Eigenvalues ---    0.32292   0.50630   0.51320   0.86276
 Eigenvalue     1 is  -8.16D-03 should be greater than     0.000000 Eigenvector:
                          d1        d2        r3        a2        a3
   1                    0.99693   0.07830   0.00000  -0.00000  -0.00000
                          r4        a1        r1        r2
   1                   -0.00000   0.00000  -0.00000  -0.00000
 Angle between quadratic step and forces=  16.75 degrees.
 Linear search not attempted -- first point.
 Variable       Old X    -DE/DX   Delta X   Delta X   Delta X     New X
                                 (Linear)    (Quad)   (Total)
    r1        1.83110   0.00003   0.00000   0.00000   0.00000   1.83110
    r2        2.74940  -0.00112   0.00000  -0.00093  -0.00093   2.74847
    r3        2.75670  -0.00075   0.00000  -0.00297  -0.00297   2.75374
    r4        2.21236  -0.00154   0.00000   0.00095   0.00095   2.21331
    a1        1.70335  -0.00063   0.00000  -0.00031  -0.00031   1.70304
    a2        1.78543  -0.00231   0.00000   0.00051   0.00051   1.78594
    a3        1.92742  -0.01132   0.00000  -0.02438  -0.02438   1.90304
    d1        3.14159  -0.00000   0.00000  -0.00000   0.00000   3.14159
    d2        3.14159  -0.00000   0.00000  -0.00000   0.00000   3.14159
         Item               Value     Threshold  Converged?
 Maximum Force            0.011320     0.000450     NO 
 RMS     Force            0.003917     0.000300     NO 
 Maximum Displacement     0.024382     0.001800     NO 
 RMS     Displacement     0.008202     0.001200     NO 
 Predicted change in Energy=-1.384190D-04
                       ----------------------------
                       ! Non-Optimized Parameters !
                       ! (Angstroms and Degrees)  !
 ----------------------                            ----------------------
 !      Name          Value   Derivative information (Atomic Units)     !
 ------------------------------------------------------------------------
 !       r1          0.969    -DE/DX =    0.0                           !
 !       r2          1.4544   -DE/DX =   -0.0011                        !
 !       r3          1.4572   -DE/DX =   -0.0008                        !
 !       r4          1.1712   -DE/DX =   -0.0015                        !
 !       a1         97.5769   -DE/DX =   -0.0006                        !
 !       a2        102.3266   -DE/DX =   -0.0023                        !
 !       a3        109.0362   -DE/DX =   -0.0113                        !
 !       d1        180.0      -DE/DX =    0.0                           !
 !       d2        180.0      -DE/DX =    0.0                           !
 ------------------------------------------------------------------------
 GradGradGradGradGradGradGradGradGradGradGradGradGradGradGradGradGradGrad

 Leave Link  103 at Mon Feb 21 20:55:01 2022, MaxMem= 16106127360 cpu:               0.6 elap:               0.0
 (Enter /sw/contrib/gaussian/g16/B01/g16/l9999.exe)

 ----------------------------------------------------------------------

 Electric dipole moment (input orientation):
 (Debye = 10**-18 statcoulomb cm , SI units = C m)
                  (au)            (Debye)         (10**-30 SI)
   Tot        0.577287D+00      0.146732D+01      0.489444D+01
   x         -0.143173D+00     -0.363910D+00     -0.121387D+01
   y          0.000000D+00      0.000000D+00      0.000000D+00
   z         -0.559251D+00     -0.142147D+01     -0.474153D+01

 Dipole polarizability, Alpha (input orientation).
 (esu units = cm**3 , SI units = C**2 m**2 J**-1)
 Alpha(0;0):
               (au)            (10**-24 esu)      (10**-40 SI)
   iso        0.274829D+02      0.407254D+01      0.453131D+01
   aniso      0.221425D+02      0.328118D+01      0.365080D+01
   xx         0.320947D+02      0.475594D+01      0.529169D+01
   yx         0.000000D+00      0.000000D+00      0.000000D+00
   yy         0.179530D+02      0.266037D+01      0.296006D+01
   zx         0.976182D+01      0.144655D+01      0.160951D+01
   zy         0.000000D+00      0.000000D+00      0.000000D+00
   zz         0.324009D+02      0.480132D+01      0.534219D+01

 ----------------------------------------------------------------------

 Dipole orientation:
     1          0.00000000          0.00000000         -0.00000000
     8         -0.45413206          0.00000000         -1.77388994
     8          2.09587845          0.00000000         -2.80182060
     7          1.63343081          0.00000000         -5.51945744
     8          3.54764087          0.00000000         -6.62865664

 Electric dipole moment (dipole orientation):
 (Debye = 10**-18 statcoulomb cm , SI units = C m)
                  (au)            (Debye)         (10**-30 SI)
   Tot        0.577287D+00      0.146732D+01      0.489444D+01
   x          0.000000D+00      0.000000D+00      0.000000D+00
   y          0.000000D+00      0.000000D+00      0.000000D+00
   z          0.577287D+00      0.146732D+01      0.489444D+01

 Dipole polarizability, Alpha (dipole orientation).
 (esu units = cm**3 , SI units = C**2 m**2 J**-1)
 Alpha(0;0):
               (au)            (10**-24 esu)      (10**-40 SI)
   iso        0.274829D+02      0.407254D+01      0.453131D+01
   aniso      0.221425D+02      0.328118D+01      0.365080D+01
   xx         0.274227D+02      0.406362D+01      0.452139D+01
   yx         0.000000D+00      0.000000D+00      0.000000D+00
   yy         0.179530D+02      0.266037D+01      0.296006D+01
   zx        -0.848735D+01     -0.125770D+01     -0.139937D+01
   zy         0.000000D+00      0.000000D+00      0.000000D+00
   zz         0.370729D+02      0.549363D+01      0.611249D+01

 ----------------------------------------------------------------------
 1\1\GINC-N2125\Freq\RMP2-FC\Aug-CC-pVTZ\H1N1O3\CGAVINH\21-Feb-2022\1\\
 #p freq mp2/aug-cc-pvtz density=current\\title\\0,1\H\O,1,r1\O,2,r2,1,
 a1\N,3,r3,2,a2,1,d1,0\O,4,r4,3,a3,2,d2,0\\r1=0.96897556\r2=1.45491931\
 r3=1.45878406\r4=1.17072885\a1=97.59494903\a2=102.29752444\a3=110.4331
 2234\d1=180.\d2=180.\\Version=ES64L-G16RevB.01\State=1-A'\HF=-279.5014
 467\MP2=-280.4465986\RMSD=3.858e-09\RMSF=2.536e-03\ZeroPoint=0.0218425
 \Thermal=0.0259737\Dipole=-0.1431733,0.,-0.5592507\DipoleDeriv=0.26711
 89,0.,0.0486856,0.,0.3558027,0.,0.0832605,0.,0.2776334,-0.3253531,0.,-
 0.2061749,0.,-0.3139751,0.,-0.1092824,0.,-0.2206266,-0.0534179,0.,0.14
 29765,0.,-0.0849303,0.,-0.7583473,0.,-1.378303,0.891424,0.,0.9159597,0
 .,0.0613806,0.,0.9336284,0.,1.7059716,-0.7797719,0.,-0.9014469,0.,-0.0
 182779,0.,-0.1492592,0.,-0.3846754\Polar=32.09465,0.,17.9530487,9.7618
 225,0.,32.4009288\Quadrupole=-1.5005064,-0.7395719,2.2400783,0.,2.1163
 447,0.\PG=CS [SG(H1N1O3)]\NImag=1\\0.06464135,0.,-0.00242381,0.0051572
 0,0.,0.51242866,-0.03587356,0.,-0.01626363,0.27226988,0.,0.00320705,0.
 ,0.,0.00209235,0.04838242,0.,-0.50857511,0.03262404,0.,0.59474603,-0.0
 1835520,0.,0.01266945,-0.22068296,0.,-0.02086877,0.33976646,0.,0.00094
 254,0.,0.,-0.00629501,0.,0.,0.00316002,-0.05314519,0.,-0.00034391,-0.0
 1931417,0.,-0.07864275,0.03161267,0.,0.17855699,-0.00946295,0.,-0.0049
 0419,-0.01634037,0.,-0.05325492,-0.08055963,0.,0.17836299,0.82716275,0
 .,-0.00275070,0.,0.,-0.00538762,0.,0.,0.01116471,0.,0.,0.00476662,0.00
 525157,0.,-0.00503822,0.01133909,0.,0.01663926,0.06406408,0.,-0.079191
 86,-0.00762095,0.,0.18959316,-0.00094964,0.,0.00334117,0.00062701,0.,-
 0.00688277,-0.02016867,0.,-0.13751630,-0.72079979,0.,-0.07303379,0.741
 29108,0.,0.00102491,0.,0.,0.00638323,0.,0.,-0.00897226,0.,0.,-0.007793
 02,0.,0.,0.00935714,-0.00564601,0.,0.00152858,-0.00838533,0.,-0.024167
 43,-0.08747743,0.,-0.02037847,-0.11258294,0.,-0.12200234,0.21409170,0.
 ,0.16501965\\-0.00034234,0.,0.00002680,-0.00062433,0.,-0.00123439,-0.0
 0402384,0.,0.00086172,0.00489960,0.,-0.00499551,0.00009090,0.,0.005341
 38\\\@


 UNLESS WE CHANGE DIRECTIONS, WE WILL WIND UP WHERE WE ARE HEADED.
     -- CONFUCIUS
 Job cpu time:       0 days  2 hours  1 minutes 37.9 seconds.
 Elapsed time:       0 days  0 hours  4 minutes 23.7 seconds.
 File lengths (MBytes):  RWF=   7239 Int=      0 D2E=      0 Chk=      8 Scr=      1
 Normal termination of Gaussian 16 at Mon Feb 21 20:55:02 2022.
