 Entering Gaussian System, Link 0=g16
 Input=hoono_a1_101p7289.gjf
 Output=hoono_a1_101p7289.log
 Initial command:
 /sw/contrib/gaussian/g16/B01/g16/l1.exe "/scr/Gau-8595.inp" -scrdir="/scr/"
 Entering Link 1 = /sw/contrib/gaussian/g16/B01/g16/l1.exe PID=      8596.
  
 Copyright (c) 1988-2017, Gaussian, Inc.  All Rights Reserved.
  
 This is part of the Gaussian(R) 16 program.  It is based on
 the Gaussian(R) 09 system (copyright 2009, Gaussian, Inc.),
 the Gaussian(R) 03 system (copyright 2003, Gaussian, Inc.),
 the Gaussian(R) 98 system (copyright 1998, Gaussian, Inc.),
 the Gaussian(R) 94 system (copyright 1995, Gaussian, Inc.),
 the Gaussian 92(TM) system (copyright 1992, Gaussian, Inc.),
 the Gaussian 90(TM) system (copyright 1990, Gaussian, Inc.),
 the Gaussian 88(TM) system (copyright 1988, Gaussian, Inc.),
 the Gaussian 86(TM) system (copyright 1986, Carnegie Mellon
 University), and the Gaussian 82(TM) system (copyright 1983,
 Carnegie Mellon University). Gaussian is a federally registered
 trademark of Gaussian, Inc.
  
 This software contains proprietary and confidential information,
 including trade secrets, belonging to Gaussian, Inc.
  
 This software is provided under written license and may be
 used, copied, transmitted, or stored only in accord with that
 written license.
  
 The following legend is applicable only to US Government
 contracts under FAR:
  
                    RESTRICTED RIGHTS LEGEND
  
 Use, reproduction and disclosure by the US Government is
 subject to restrictions as set forth in subparagraphs (a)
 and (c) of the Commercial Computer Software - Restricted
 Rights clause in FAR 52.227-19.
  
 Gaussian, Inc.
 340 Quinnipiac St., Bldg. 40, Wallingford CT 06492
  
  
 ---------------------------------------------------------------
 Warning -- This program may not be used in any manner that
 competes with the business of Gaussian, Inc. or will provide
 assistance to any competitor of Gaussian, Inc.  The licensee
 of this program is prohibited from giving any competitor of
 Gaussian, Inc. access to this program.  By using this program,
 the user acknowledges that Gaussian, Inc. is engaged in the
 business of creating and licensing software in the field of
 computational chemistry and represents and warrants to the
 licensee that it is not a competitor of Gaussian, Inc. and that
 it will not use this program in any manner prohibited above.
 ---------------------------------------------------------------
  

 Cite this work as:
 Gaussian 16, Revision B.01,
 M. J. Frisch, G. W. Trucks, H. B. Schlegel, G. E. Scuseria, 
 M. A. Robb, J. R. Cheeseman, G. Scalmani, V. Barone, 
 G. A. Petersson, H. Nakatsuji, X. Li, M. Caricato, A. V. Marenich, 
 J. Bloino, B. G. Janesko, R. Gomperts, B. Mennucci, H. P. Hratchian, 
 J. V. Ortiz, A. F. Izmaylov, J. L. Sonnenberg, D. Williams-Young, 
 F. Ding, F. Lipparini, F. Egidi, J. Goings, B. Peng, A. Petrone, 
 T. Henderson, D. Ranasinghe, V. G. Zakrzewski, J. Gao, N. Rega, 
 G. Zheng, W. Liang, M. Hada, M. Ehara, K. Toyota, R. Fukuda, 
 J. Hasegawa, M. Ishida, T. Nakajima, Y. Honda, O. Kitao, H. Nakai, 
 T. Vreven, K. Throssell, J. A. Montgomery, Jr., J. E. Peralta, 
 F. Ogliaro, M. J. Bearpark, J. J. Heyd, E. N. Brothers, K. N. Kudin, 
 V. N. Staroverov, T. A. Keith, R. Kobayashi, J. Normand, 
 K. Raghavachari, A. P. Rendell, J. C. Burant, S. S. Iyengar, 
 J. Tomasi, M. Cossi, J. M. Millam, M. Klene, C. Adamo, R. Cammi, 
 J. W. Ochterski, R. L. Martin, K. Morokuma, O. Farkas, 
 J. B. Foresman, and D. J. Fox, Gaussian, Inc., Wallingford CT, 2016.
 
 ******************************************
 Gaussian 16:  ES64L-G16RevB.01 20-Dec-2017
                 6-Mar-2022 
 ******************************************
 %nproc=28
 Will use up to   28 processors via shared memory.
 %mem=120GB
 %chk=hoono_a1_101p7289.chk
 ---------------------------------------
 #p freq mp2/aug-cc-pvtz density=current
 ---------------------------------------
 1/10=4,30=1,38=1/1,3;
 2/12=2,17=6,18=5,40=1/2;
 3/5=16,6=1,7=10,11=9,25=1,30=1,71=2,140=1/1,2,3;
 4//1;
 5/5=2,38=5,98=1/2;
 8/6=3,8=1,10=1,19=11,30=-1/1;
 9/15=3,16=-3/6;
 11/6=1,8=1,15=11,17=12,24=-1,27=1,28=-2,29=300,32=6,42=3/1,2,10;
 10/6=2,21=1/2;
 8/6=4,8=1,10=1,19=11,30=-1/11,4;
 10/5=1,20=4/2;
 11/12=2,14=11,16=1,17=2,28=-2,42=3,76=2/2,10,12;
 6/7=2,8=2,9=2,10=2,22=-1/1;
 7/8=1,10=1,12=2,25=1,44=2/1,2,3,16;
 1/10=4,30=1/3;
 99//99;
 Leave Link    1 at Sun Mar  6 19:20:53 2022, MaxMem= 16106127360 cpu:               2.3 elap:               0.1
 (Enter /sw/contrib/gaussian/g16/B01/g16/l101.exe)
 -----
 title
 -----
 Symbolic Z-matrix:
 Charge =  0 Multiplicity = 1
 H
 O                    1    r1
 O                    2    r2       1    a1
 N                    3    r3       2    a2       1    d1       0
 O                    4    r4       3    a3       2    d2       0
       Variables:
  r1                    0.98538                  
  r2                    1.42674                  
  r3                    1.38111                  
  r4                    1.19479                  
  a1                  101.72892                  
  a2                  113.13777                  
  a3                  114.33392                  
  d1                    0.                       
  d2                    0.                       
 
 ITRead=  0  0  0  0  0
 MicOpt= -1 -1 -1 -1 -1
 NAtoms=      5 NQM=        5 NQMF=       0 NMMI=      0 NMMIF=      0
                NMic=       0 NMicF=      0.
                    Isotopes and Nuclear Properties:
 (Nuclear quadrupole moments (NQMom) in fm**2, nuclear magnetic moments (NMagM)
  in nuclear magnetons)

  Atom         1           2           3           4           5
 IAtWgt=           1          16          16          14          16
 AtmWgt=   1.0078250  15.9949146  15.9949146  14.0030740  15.9949146
 NucSpn=           1           0           0           2           0
 AtZEff=  -0.0000000  -0.0000000  -0.0000000  -0.0000000  -0.0000000
 NQMom=    0.0000000   0.0000000   0.0000000   2.0440000   0.0000000
 NMagM=    2.7928460   0.0000000   0.0000000   0.4037610   0.0000000
 AtZNuc=   1.0000000   8.0000000   8.0000000   7.0000000   8.0000000
 Leave Link  101 at Sun Mar  6 19:20:53 2022, MaxMem= 16106127360 cpu:               2.5 elap:               0.1
 (Enter /sw/contrib/gaussian/g16/B01/g16/l103.exe)

 GradGradGradGradGradGradGradGradGradGradGradGradGradGradGradGradGradGrad
 Berny optimization.
 Initialization pass.
                       ----------------------------
                       !    Initial Parameters    !
                       ! (Angstroms and Degrees)  !
 ----------------------                            ----------------------
 !      Name          Value   Derivative information (Atomic Units)     !
 ------------------------------------------------------------------------
 !       r1          0.9854   calculate D2E/DX2 analytically            !
 !       r2          1.4267   calculate D2E/DX2 analytically            !
 !       r3          1.3811   calculate D2E/DX2 analytically            !
 !       r4          1.1948   calculate D2E/DX2 analytically            !
 !       a1        101.7289   calculate D2E/DX2 analytically            !
 !       a2        113.1378   calculate D2E/DX2 analytically            !
 !       a3        114.3339   calculate D2E/DX2 analytically            !
 !       d1          0.0      calculate D2E/DX2 analytically            !
 !       d2          0.0      calculate D2E/DX2 analytically            !
 ------------------------------------------------------------------------
 Trust Radius=3.00D-01 FncErr=1.00D-07 GrdErr=1.00D-07 EigMax=2.50D+02 EigMin=1.00D-04
 Number of steps in this run=      2 maximum allowed number of steps=      2.
 GradGradGradGradGradGradGradGradGradGradGradGradGradGradGradGradGradGrad

 Leave Link  103 at Sun Mar  6 19:20:53 2022, MaxMem= 16106127360 cpu:               0.6 elap:               0.0
 (Enter /sw/contrib/gaussian/g16/B01/g16/l202.exe)
                          Input orientation:                          
 ---------------------------------------------------------------------
 Center     Atomic      Atomic             Coordinates (Angstroms)
 Number     Number       Type             X           Y           Z
 ---------------------------------------------------------------------
      1          1           0        0.000000    0.000000    0.000000
      2          8           0        0.000000    0.000000    0.985377
      3          8           0        1.396947    0.000000    1.275406
      4          7           0        2.186483    0.000000    0.142229
      5          8           0        1.574711    0.000000   -0.884053
 ---------------------------------------------------------------------
                    Distance matrix (angstroms):
                    1          2          3          4          5
     1  H    0.000000
     2  O    0.985377   0.000000
     3  O    1.891592   1.426737   0.000000
     4  N    2.191104   2.343418   1.381108   0.000000
     5  O    1.805898   2.444276   2.166763   1.194788   0.000000
 Stoichiometry    HNO3
 Framework group  CS[SG(HNO3)]
 Deg. of freedom     7
 Full point group                 CS      NOp   2
 Largest Abelian subgroup         CS      NOp   2
 Largest concise Abelian subgroup C1      NOp   1
                         Standard orientation:                         
 ---------------------------------------------------------------------
 Center     Atomic      Atomic             Coordinates (Angstroms)
 Number     Number       Type             X           Y           Z
 ---------------------------------------------------------------------
      1          1           0        1.126662   -0.602352    0.000000
      2          8           0        1.315483    0.364764    0.000000
      3          8           0       -0.000000    0.917106   -0.000000
      4          7           0       -0.992048   -0.043778   -0.000000
      5          8           0       -0.588273   -1.168271   -0.000000
 ---------------------------------------------------------------------
 Rotational constants (GHZ):          21.3207368           8.1055017           5.8728290
 Leave Link  202 at Sun Mar  6 19:20:53 2022, MaxMem= 16106127360 cpu:               0.3 elap:               0.0
 (Enter /sw/contrib/gaussian/g16/B01/g16/l301.exe)
 Standard basis: Aug-CC-pVTZ (5D, 7F)
 Ernie: Thresh=  0.10000D-02 Tol=  0.10000D-05 Strict=F.
 Ernie:  12 primitive shells out of 131 were deleted.
 There are   166 symmetry adapted cartesian basis functions of A'  symmetry.
 There are    79 symmetry adapted cartesian basis functions of A"  symmetry.
 There are   136 symmetry adapted basis functions of A'  symmetry.
 There are    71 symmetry adapted basis functions of A"  symmetry.
   207 basis functions,   315 primitive gaussians,   245 cartesian basis functions
    16 alpha electrons       16 beta electrons
       nuclear repulsion energy       122.6977359883 Hartrees.
 IExCor=    0 DFT=F Ex=HF Corr=None ExCW=0 ScaHFX=  1.000000
 ScaDFX=  1.000000  1.000000  1.000000  1.000000 ScalE2=  1.000000  1.000000
 IRadAn=      5 IRanWt=     -1 IRanGd=            0 ICorTp=0 IEmpDi=  4
 NAtoms=    5 NActive=    5 NUniq=    5 SFac= 1.00D+00 NAtFMM=   60 NAOKFM=F Big=F
 Integral buffers will be    131072 words long.
 Raffenetti 1 integral format.
 Two-electron integral symmetry is turned on.
 Leave Link  301 at Sun Mar  6 19:20:53 2022, MaxMem= 16106127360 cpu:               1.7 elap:               0.1
 (Enter /sw/contrib/gaussian/g16/B01/g16/l302.exe)
 NPDir=0 NMtPBC=     1 NCelOv=     1 NCel=       1 NClECP=     1 NCelD=      1
         NCelK=      1 NCelE2=     1 NClLst=     1 CellRange=     0.0.
 One-electron integrals computed using PRISM.
 One-electron integral symmetry used in STVInt
 NBasis=   207 RedAO= T EigKep=  1.31D-04  NBF=   136    71
 NBsUse=   207 1.00D-06 EigRej= -1.00D+00 NBFU=   136    71
 Leave Link  302 at Sun Mar  6 19:20:54 2022, MaxMem= 16106127360 cpu:               4.7 elap:               0.2
 (Enter /sw/contrib/gaussian/g16/B01/g16/l303.exe)
 DipDrv:  MaxL=1.
 Leave Link  303 at Sun Mar  6 19:20:54 2022, MaxMem= 16106127360 cpu:               0.9 elap:               0.1
 (Enter /sw/contrib/gaussian/g16/B01/g16/l401.exe)
 ExpMin= 2.53D-02 ExpMax= 1.53D+04 ExpMxC= 5.22D+02 IAcc=3 IRadAn=         5 AccDes= 0.00D+00
 Harris functional with IExCor=  205 and IRadAn=       5 diagonalized for initial guess.
 HarFok:  IExCor=  205 AccDes= 0.00D+00 IRadAn=         5 IDoV= 1 UseB2=F ITyADJ=14
 ICtDFT=  3500011 ScaDFX=  1.000000  1.000000  1.000000  1.000000
 FoFCou: FMM=F IPFlag=           0 FMFlag=      100000 FMFlg1=           0
         NFxFlg=           0 DoJE=T BraDBF=F KetDBF=T FulRan=T
         wScrn=  0.000000 ICntrl=       500 IOpCl=  0 I1Cent=   200000004 NGrid=           0
         NMat0=    1 NMatS0=      1 NMatT0=    0 NMatD0=    1 NMtDS0=    0 NMtDT0=    0
 Petite list used in FoFCou.
 Harris En= -279.644981775107    
 JPrj=0 DoOrth=F DoCkMO=F.
 Initial guess orbital symmetries:
       Occupied  (A') (A') (A') (A') (A') (A') (A') (A') (A') (A')
                 (A") (A') (A") (A') (A") (A')
       Virtual   (A") (A') (A') (A') (A') (A") (A') (A') (A') (A')
                 (A") (A') (A") (A') (A') (A") (A') (A') (A") (A')
                 (A') (A') (A') (A') (A") (A') (A') (A') (A") (A')
                 (A') (A") (A") (A') (A') (A") (A') (A") (A') (A")
                 (A') (A") (A') (A") (A') (A') (A') (A') (A") (A')
                 (A') (A") (A') (A") (A') (A") (A') (A') (A') (A")
                 (A') (A') (A") (A') (A') (A') (A") (A") (A') (A')
                 (A") (A') (A") (A") (A') (A') (A") (A') (A') (A')
                 (A") (A') (A') (A") (A') (A") (A") (A') (A') (A')
                 (A') (A") (A') (A") (A') (A') (A") (A') (A") (A')
                 (A") (A') (A') (A") (A") (A') (A') (A') (A") (A')
                 (A") (A') (A') (A') (A") (A') (A') (A') (A") (A')
                 (A") (A') (A') (A") (A") (A") (A") (A') (A') (A')
                 (A') (A') (A') (A") (A') (A") (A') (A") (A') (A')
                 (A") (A") (A') (A') (A') (A") (A') (A') (A') (A")
                 (A') (A') (A') (A") (A') (A") (A") (A') (A") (A')
                 (A') (A") (A") (A') (A") (A') (A') (A") (A") (A')
                 (A") (A") (A") (A') (A') (A") (A') (A') (A') (A")
                 (A') (A') (A') (A') (A') (A') (A') (A') (A') (A')
                 (A')
 The electronic state of the initial guess is 1-A'.
 Leave Link  401 at Sun Mar  6 19:20:54 2022, MaxMem= 16106127360 cpu:               8.0 elap:               0.3
 (Enter /sw/contrib/gaussian/g16/B01/g16/l502.exe)
 Keep R1 ints in memory in symmetry-blocked form, NReq=348887737.
 FoFCou: FMM=F IPFlag=           0 FMFlag=           0 FMFlg1=           0
         NFxFlg=           0 DoJE=F BraDBF=F KetDBF=F FulRan=T
         wScrn=  0.000000 ICntrl=       600 IOpCl=  0 I1Cent=           0 NGrid=           0
         NMat0=    1 NMatS0=  21528 NMatT0=    0 NMatD0=    1 NMtDS0=    0 NMtDT0=    0
 Petite list used in FoFCou.
 Closed shell SCF:
 Using DIIS extrapolation, IDIIS=  1040.
 NGot= 16106127360 LenX= 15988850015 LenY= 15988789549
 Requested convergence on RMS density matrix=1.00D-08 within 128 cycles.
 Requested convergence on MAX density matrix=1.00D-06.
 Requested convergence on             energy=1.00D-06.
 No special actions if energy rises.

 Cycle   1  Pass 1  IDiag  1:
 E= -279.364281562007    
 DIIS: error= 2.75D-02 at cycle   1 NSaved=   1.
 NSaved= 1 IEnMin= 1 EnMin= -279.364281562007     IErMin= 1 ErrMin= 2.75D-02
 ErrMax= 2.75D-02  0.00D+00 EMaxC= 1.00D-01 BMatC= 4.51D-01 BMatP= 4.51D-01
 IDIUse=3 WtCom= 7.25D-01 WtEn= 2.75D-01
 Coeff-Com:  0.100D+01
 Coeff-En:   0.100D+01
 Coeff:      0.100D+01
 Gap=     0.499 Goal=   None    Shift=    0.000
 GapD=    0.499 DampG=2.000 DampE=0.500 DampFc=1.0000 IDamp=-1.
 RMSDP=1.68D-03 MaxDP=8.75D-02              OVMax= 1.23D-01

 Cycle   2  Pass 1  IDiag  1:
 E= -279.446176125111     Delta-E=       -0.081894563105 Rises=F Damp=F
 DIIS: error= 1.92D-02 at cycle   2 NSaved=   2.
 NSaved= 2 IEnMin= 2 EnMin= -279.446176125111     IErMin= 2 ErrMin= 1.92D-02
 ErrMax= 1.92D-02  0.00D+00 EMaxC= 1.00D-01 BMatC= 8.64D-02 BMatP= 4.51D-01
 IDIUse=3 WtCom= 8.08D-01 WtEn= 1.92D-01
 Coeff-Com:  0.219D+00 0.781D+00
 Coeff-En:   0.797D-01 0.920D+00
 Coeff:      0.192D+00 0.808D+00
 Gap=     0.561 Goal=   None    Shift=    0.000
 RMSDP=9.67D-04 MaxDP=3.64D-02 DE=-8.19D-02 OVMax= 9.13D-02

 Cycle   3  Pass 1  IDiag  1:
 E= -279.484213781539     Delta-E=       -0.038037656427 Rises=F Damp=F
 DIIS: error= 1.09D-02 at cycle   3 NSaved=   3.
 NSaved= 3 IEnMin= 3 EnMin= -279.484213781539     IErMin= 3 ErrMin= 1.09D-02
 ErrMax= 1.09D-02  0.00D+00 EMaxC= 1.00D-01 BMatC= 3.09D-02 BMatP= 8.64D-02
 IDIUse=3 WtCom= 8.91D-01 WtEn= 1.09D-01
 Coeff-Com: -0.347D-01 0.364D+00 0.671D+00
 Coeff-En:   0.000D+00 0.217D+00 0.783D+00
 Coeff:     -0.309D-01 0.348D+00 0.683D+00
 Gap=     0.541 Goal=   None    Shift=    0.000
 RMSDP=4.09D-04 MaxDP=1.57D-02 DE=-3.80D-02 OVMax= 3.91D-02

 Cycle   4  Pass 1  IDiag  1:
 E= -279.505340378569     Delta-E=       -0.021126597030 Rises=F Damp=F
 DIIS: error= 1.60D-03 at cycle   4 NSaved=   4.
 NSaved= 4 IEnMin= 4 EnMin= -279.505340378569     IErMin= 4 ErrMin= 1.60D-03
 ErrMax= 1.60D-03  0.00D+00 EMaxC= 1.00D-01 BMatC= 5.92D-04 BMatP= 3.09D-02
 IDIUse=3 WtCom= 9.84D-01 WtEn= 1.60D-02
 Coeff-Com: -0.119D-01 0.460D-01 0.152D+00 0.814D+00
 Coeff-En:   0.000D+00 0.000D+00 0.000D+00 0.100D+01
 Coeff:     -0.117D-01 0.453D-01 0.150D+00 0.817D+00
 Gap=     0.528 Goal=   None    Shift=    0.000
 RMSDP=9.87D-05 MaxDP=2.28D-03 DE=-2.11D-02 OVMax= 1.17D-02

 Cycle   5  Pass 1  IDiag  1:
 E= -279.506147346411     Delta-E=       -0.000806967842 Rises=F Damp=F
 DIIS: error= 1.08D-03 at cycle   5 NSaved=   5.
 NSaved= 5 IEnMin= 5 EnMin= -279.506147346411     IErMin= 5 ErrMin= 1.08D-03
 ErrMax= 1.08D-03  0.00D+00 EMaxC= 1.00D-01 BMatC= 1.02D-04 BMatP= 5.92D-04
 IDIUse=3 WtCom= 9.89D-01 WtEn= 1.08D-02
 Coeff-Com:  0.536D-02-0.655D-01-0.110D+00 0.596D-01 0.111D+01
 Coeff-En:   0.000D+00 0.000D+00 0.000D+00 0.000D+00 0.100D+01
 Coeff:      0.530D-02-0.648D-01-0.109D+00 0.589D-01 0.111D+01
 Gap=     0.532 Goal=   None    Shift=    0.000
 RMSDP=7.94D-05 MaxDP=2.11D-03 DE=-8.07D-04 OVMax= 1.29D-02

 Cycle   6  Pass 1  IDiag  1:
 E= -279.506507121260     Delta-E=       -0.000359774849 Rises=F Damp=F
 DIIS: error= 3.25D-04 at cycle   6 NSaved=   6.
 NSaved= 6 IEnMin= 6 EnMin= -279.506507121260     IErMin= 6 ErrMin= 3.25D-04
 ErrMax= 3.25D-04  0.00D+00 EMaxC= 1.00D-01 BMatC= 2.40D-05 BMatP= 1.02D-04
 IDIUse=3 WtCom= 9.97D-01 WtEn= 3.25D-03
 Coeff-Com:  0.188D-02-0.704D-02-0.177D-01-0.184D+00 0.151D-01 0.119D+01
 Coeff-En:   0.000D+00 0.000D+00 0.000D+00 0.000D+00 0.000D+00 0.100D+01
 Coeff:      0.187D-02-0.702D-02-0.177D-01-0.183D+00 0.150D-01 0.119D+01
 Gap=     0.532 Goal=   None    Shift=    0.000
 RMSDP=4.65D-05 MaxDP=1.07D-03 DE=-3.60D-04 OVMax= 6.08D-03

 Cycle   7  Pass 1  IDiag  1:
 E= -279.506592476541     Delta-E=       -0.000085355281 Rises=F Damp=F
 DIIS: error= 1.30D-04 at cycle   7 NSaved=   7.
 NSaved= 7 IEnMin= 7 EnMin= -279.506592476541     IErMin= 7 ErrMin= 1.30D-04
 ErrMax= 1.30D-04  0.00D+00 EMaxC= 1.00D-01 BMatC= 3.56D-06 BMatP= 2.40D-05
 IDIUse=3 WtCom= 9.99D-01 WtEn= 1.30D-03
 Coeff-Com: -0.109D-02 0.114D-01 0.250D-01 0.171D-01-0.182D+00-0.153D+00
 Coeff-Com:  0.128D+01
 Coeff-En:   0.000D+00 0.000D+00 0.000D+00 0.000D+00 0.000D+00 0.000D+00
 Coeff-En:   0.100D+01
 Coeff:     -0.109D-02 0.114D-01 0.250D-01 0.171D-01-0.182D+00-0.153D+00
 Coeff:      0.128D+01
 Gap=     0.532 Goal=   None    Shift=    0.000
 RMSDP=1.75D-05 MaxDP=5.11D-04 DE=-8.54D-05 OVMax= 2.33D-03

 Cycle   8  Pass 1  IDiag  1:
 E= -279.506604417440     Delta-E=       -0.000011940899 Rises=F Damp=F
 DIIS: error= 4.71D-05 at cycle   8 NSaved=   8.
 NSaved= 8 IEnMin= 8 EnMin= -279.506604417440     IErMin= 8 ErrMin= 4.71D-05
 ErrMax= 4.71D-05  0.00D+00 EMaxC= 1.00D-01 BMatC= 5.92D-07 BMatP= 3.56D-06
 IDIUse=1 WtCom= 1.00D+00 WtEn= 0.00D+00
 Coeff-Com: -0.557D-03 0.406D-02 0.966D-02 0.250D-01-0.574D-01-0.192D+00
 Coeff-Com:  0.354D+00 0.857D+00
 Coeff:     -0.557D-03 0.406D-02 0.966D-02 0.250D-01-0.574D-01-0.192D+00
 Coeff:      0.354D+00 0.857D+00
 Gap=     0.532 Goal=   None    Shift=    0.000
 RMSDP=5.38D-06 MaxDP=1.52D-04 DE=-1.19D-05 OVMax= 6.41D-04

 Cycle   9  Pass 1  IDiag  1:
 E= -279.506605772937     Delta-E=       -0.000001355497 Rises=F Damp=F
 DIIS: error= 2.47D-05 at cycle   9 NSaved=   9.
 NSaved= 9 IEnMin= 9 EnMin= -279.506605772937     IErMin= 9 ErrMin= 2.47D-05
 ErrMax= 2.47D-05  0.00D+00 EMaxC= 1.00D-01 BMatC= 1.16D-07 BMatP= 5.92D-07
 IDIUse=1 WtCom= 1.00D+00 WtEn= 0.00D+00
 Coeff-Com:  0.239D-03-0.254D-02-0.529D-02-0.562D-02 0.469D-01 0.487D-01
 Coeff-Com: -0.339D+00 0.343D-01 0.122D+01
 Coeff:      0.239D-03-0.254D-02-0.529D-02-0.562D-02 0.469D-01 0.487D-01
 Coeff:     -0.339D+00 0.343D-01 0.122D+01
 Gap=     0.532 Goal=   None    Shift=    0.000
 RMSDP=2.44D-06 MaxDP=6.55D-05 DE=-1.36D-06 OVMax= 2.57D-04

 Cycle  10  Pass 1  IDiag  1:
 E= -279.506606032957     Delta-E=       -0.000000260020 Rises=F Damp=F
 DIIS: error= 5.60D-06 at cycle  10 NSaved=  10.
 NSaved=10 IEnMin=10 EnMin= -279.506606032957     IErMin=10 ErrMin= 5.60D-06
 ErrMax= 5.60D-06  0.00D+00 EMaxC= 1.00D-01 BMatC= 8.18D-09 BMatP= 1.16D-07
 IDIUse=1 WtCom= 1.00D+00 WtEn= 0.00D+00
 Coeff-Com: -0.380D-04 0.489D-03 0.119D-02-0.184D-02-0.109D-01 0.520D-02
 Coeff-Com:  0.729D-01-0.541D-01-0.437D+00 0.142D+01
 Coeff:     -0.380D-04 0.489D-03 0.119D-02-0.184D-02-0.109D-01 0.520D-02
 Coeff:      0.729D-01-0.541D-01-0.437D+00 0.142D+01
 Gap=     0.532 Goal=   None    Shift=    0.000
 RMSDP=6.98D-07 MaxDP=2.54D-05 DE=-2.60D-07 OVMax= 7.51D-05

 Cycle  11  Pass 1  IDiag  1:
 E= -279.506606057465     Delta-E=       -0.000000024508 Rises=F Damp=F
 DIIS: error= 2.18D-06 at cycle  11 NSaved=  11.
 NSaved=11 IEnMin=11 EnMin= -279.506606057465     IErMin=11 ErrMin= 2.18D-06
 ErrMax= 2.18D-06  0.00D+00 EMaxC= 1.00D-01 BMatC= 8.20D-10 BMatP= 8.18D-09
 IDIUse=1 WtCom= 1.00D+00 WtEn= 0.00D+00
 Coeff-Com: -0.158D-04 0.159D-03 0.331D-03 0.902D-03-0.209D-02-0.711D-02
 Coeff-Com:  0.182D-01 0.193D-01-0.455D-01-0.331D+00 0.135D+01
 Coeff:     -0.158D-04 0.159D-03 0.331D-03 0.902D-03-0.209D-02-0.711D-02
 Coeff:      0.182D-01 0.193D-01-0.455D-01-0.331D+00 0.135D+01
 Gap=     0.532 Goal=   None    Shift=    0.000
 RMSDP=2.41D-07 MaxDP=8.95D-06 DE=-2.45D-08 OVMax= 2.83D-05

 Cycle  12  Pass 1  IDiag  1:
 E= -279.506606060405     Delta-E=       -0.000000002939 Rises=F Damp=F
 DIIS: error= 7.09D-07 at cycle  12 NSaved=  12.
 NSaved=12 IEnMin=12 EnMin= -279.506606060405     IErMin=12 ErrMin= 7.09D-07
 ErrMax= 7.09D-07  0.00D+00 EMaxC= 1.00D-01 BMatC= 8.55D-11 BMatP= 8.20D-10
 IDIUse=1 WtCom= 1.00D+00 WtEn= 0.00D+00
 Coeff-Com:  0.256D-05-0.446D-04-0.968D-04 0.132D-03 0.112D-02-0.736D-03
 Coeff-Com: -0.727D-02 0.648D-02 0.408D-01-0.114D+00-0.177D+00 0.125D+01
 Coeff:      0.256D-05-0.446D-04-0.968D-04 0.132D-03 0.112D-02-0.736D-03
 Coeff:     -0.727D-02 0.648D-02 0.408D-01-0.114D+00-0.177D+00 0.125D+01
 Gap=     0.532 Goal=   None    Shift=    0.000
 RMSDP=8.34D-08 MaxDP=2.72D-06 DE=-2.94D-09 OVMax= 9.71D-06

 Cycle  13  Pass 1  IDiag  1:
 E= -279.506606060702     Delta-E=       -0.000000000297 Rises=F Damp=F
 DIIS: error= 1.58D-07 at cycle  13 NSaved=  13.
 NSaved=13 IEnMin=13 EnMin= -279.506606060702     IErMin=13 ErrMin= 1.58D-07
 ErrMax= 1.58D-07  0.00D+00 EMaxC= 1.00D-01 BMatC= 7.21D-12 BMatP= 8.55D-11
 IDIUse=1 WtCom= 1.00D+00 WtEn= 0.00D+00
 Coeff-Com:  0.129D-05-0.121D-04-0.176D-04-0.122D-03 0.503D-04 0.924D-03
 Coeff-Com: -0.106D-02-0.249D-02-0.207D-02 0.549D-01-0.130D+00-0.147D+00
 Coeff-Com:  0.123D+01
 Coeff:      0.129D-05-0.121D-04-0.176D-04-0.122D-03 0.503D-04 0.924D-03
 Coeff:     -0.106D-02-0.249D-02-0.207D-02 0.549D-01-0.130D+00-0.147D+00
 Coeff:      0.123D+01
 Gap=     0.532 Goal=   None    Shift=    0.000
 RMSDP=2.23D-08 MaxDP=6.58D-07 DE=-2.97D-10 OVMax= 2.01D-06

 Cycle  14  Pass 1  IDiag  1:
 E= -279.506606060723     Delta-E=       -0.000000000021 Rises=F Damp=F
 DIIS: error= 4.11D-08 at cycle  14 NSaved=  14.
 NSaved=14 IEnMin=14 EnMin= -279.506606060723     IErMin=14 ErrMin= 4.11D-08
 ErrMax= 4.11D-08  0.00D+00 EMaxC= 1.00D-01 BMatC= 4.88D-13 BMatP= 7.21D-12
 IDIUse=1 WtCom= 1.00D+00 WtEn= 0.00D+00
 Coeff-Com: -0.299D-06 0.444D-05 0.888D-05-0.402D-05-0.113D-03 0.605D-04
 Coeff-Com:  0.645D-03-0.326D-03-0.359D-02 0.813D-02 0.165D-01-0.897D-01
 Coeff-Com: -0.221D-01 0.109D+01
 Coeff:     -0.299D-06 0.444D-05 0.888D-05-0.402D-05-0.113D-03 0.605D-04
 Coeff:      0.645D-03-0.326D-03-0.359D-02 0.813D-02 0.165D-01-0.897D-01
 Coeff:     -0.221D-01 0.109D+01
 Gap=     0.532 Goal=   None    Shift=    0.000
 RMSDP=4.38D-09 MaxDP=1.10D-07 DE=-2.10D-11 OVMax= 4.45D-07

 SCF Done:  E(RHF) =  -279.506606061     A.U. after   14 cycles
            NFock= 14  Conv=0.44D-08     -V/T= 2.0022
 KE= 2.788805782706D+02 PE=-9.062715318585D+02 EE= 2.251866115389D+02
 Leave Link  502 at Sun Mar  6 19:20:58 2022, MaxMem= 16106127360 cpu:              55.7 elap:               3.6
 (Enter /sw/contrib/gaussian/g16/B01/g16/l801.exe)
 ExpMin= 2.53D-02 ExpMax= 1.53D+04 ExpMxC= 5.22D+02 IAcc=3 IRadAn=         5 AccDes= 0.00D+00
 HarFok:  IExCor=  205 AccDes= 0.00D+00 IRadAn=         5 IDoV=-2 UseB2=F ITyADJ=14
 ICtDFT= 12500011 ScaDFX=  1.000000  1.000000  1.000000  1.000000
 DSYEVD-2 returned Info=          93 IAlg= 4 N=    46 NDim=    46 NE2=   350130240 trying  DSYEV.
 Largest valence mixing into a core orbital is  2.07D-04
 Largest core mixing into a valence orbital is  3.09D-05
 Range of M.O.s used for correlation:     5   207
 NBasis=   207 NAE=    16 NBE=    16 NFC=     4 NFV=     0
 NROrb=    203 NOA=    12 NOB=    12 NVA=   191 NVB=   191

 **** Warning!!: The largest alpha MO coefficient is  0.15928120D+02

 Leave Link  801 at Sun Mar  6 19:20:58 2022, MaxMem= 16106127360 cpu:               2.1 elap:               0.1
 (Enter /sw/contrib/gaussian/g16/B01/g16/l906.exe)
 Frozen-core derivative calculation, NFC=   4 NFV=   0.
 FulOut=F Deriv=T AODrv=T NAtomX=     5
   MMem=           0  MDisk=          12 MDiskD=          12
  W3Min=      811440 MinDsk=     2425030 NBas6D=         245
 NBas2D=       30762    NTT=       30135    LW2=     7400000
    MDV= 16105571560 MDiskM=      328644 NBas2p=       30759
 Disk-based method using ON**2 memory for 12 occupieds at a time.
 Permanent disk used for amplitudes=    11516536 words.
 Estimated scratch disk usage=   321863743 words.
 IMap=   1   2   3   4   5   6   7   8   9  10  11  12  13  14  15  16
 Actual    scratch disk usage=   310892607 words.
 JobTyp=1 Pass  1:  I=   5 to  16 NPSUse= 28 ParTrn=T ParDer=T DoDerP=T.
 (rs|ai) integrals will be sorted in core.
 Spin components of T(2) and E(2):
     alpha-alpha T2 =       0.3477969752D-01 E2=     -0.1244987205D+00
     alpha-beta  T2 =       0.1844740789D+00 E2=     -0.6995907776D+00
     beta-beta   T2 =       0.3477969752D-01 E2=     -0.1244987205D+00
 The integrals were generated   1 times.
 ANorm=    0.1119836360D+01
 E2 =    -0.9485882185D+00 EUMP2 =    -0.28045519427923D+03
 Leave Link  906 at Sun Mar  6 19:22:35 2022, MaxMem= 16106127360 cpu:            2715.6 elap:              97.1
 (Enter /sw/contrib/gaussian/g16/B01/g16/l1101.exe)
 Using compressed Sx but separate Hx and Fx, NAtomX=     5.
 Will process      6 centers per pass.
 Leave Link 1101 at Sun Mar  6 19:22:35 2022, MaxMem= 16106127360 cpu:               5.4 elap:               0.2
 (Enter /sw/contrib/gaussian/g16/B01/g16/l1102.exe)
 Leave Link 1102 at Sun Mar  6 19:22:35 2022, MaxMem= 16106127360 cpu:               1.3 elap:               0.1
 (Enter /sw/contrib/gaussian/g16/B01/g16/l1110.exe)
 Forming Gx(P) for the SCF density, NAtomX=     5.
 Integral derivatives from FoFJK, PRISM(SPDF).
 Do as many integral derivatives as possible in FoFJK.
 G2DrvN: MDV=   16106126844.
 G2DrvN: will do     6 centers at a time, making    1 passes.
 Calling FoFCou, ICntrl=  3107 FMM=F I1Cent=   0 AccDes= 0.00D+00.
 FoFJK:  IHMeth= 1 ICntrl=    3107 DoSepK=F KAlg= 0 I1Cent=           0 FoldK=F
 IRaf=         0 NMat=       1 IRICut=       1 DoRegI=T DoRafI=F ISym2E= 1 IDoP0=0 IntGTp=1.
 FoFCou: FMM=F IPFlag=           0 FMFlag=      100000 FMFlg1=           0
         NFxFlg=           0 DoJE=F BraDBF=F KetDBF=F FulRan=T
         wScrn=  0.000000 ICntrl=      3107 IOpCl=  0 I1Cent=           0 NGrid=           0
         NMat0=    1 NMatS0=      1 NMatT0=    0 NMatD0=    1 NMtDS0=    0 NMtDT0=    0
 Petite list used in FoFCou.
 End of G2Drv F.D. properties file   721 does not exist.
 End of G2Drv F.D. properties file   722 does not exist.
 End of G2Drv F.D. properties file   788 does not exist.
 Leave Link 1110 at Sun Mar  6 19:22:38 2022, MaxMem= 16106127360 cpu:              87.8 elap:               3.2
 (Enter /sw/contrib/gaussian/g16/B01/g16/l1002.exe)
 Minotr:  Closed shell wavefunction.
          IDoAtm=11111
          Frozen-core window.
          Direct CPHF calculation.
          Differentiating once with respect to electric field.
                with respect to dipole field.
          Differentiating once with respect to nuclear coordinates.
          Requested convergence is 1.0D-08 RMS, and 1.0D-07 maximum.
          Secondary convergence is 1.0D-12 RMS, and 1.0D-12 maximum.
          NewPWx=T KeepS1=T KeepF1=T KeepIn=T MapXYZ=F SortEE=F KeepMc=T.
 Keep R1 ints in memory in symmetry-blocked form, NReq=348888983.
 FoFCou: FMM=F IPFlag=           0 FMFlag=           0 FMFlg1=           0
         NFxFlg=           0 DoJE=F BraDBF=F KetDBF=F FulRan=T
         wScrn=  0.000000 ICntrl=       600 IOpCl=  0 I1Cent=           0 NGrid=           0
         NMat0=    1 NMatS0=  21528 NMatT0=    0 NMatD0=    1 NMtDS0=    0 NMtDT0=    0
 Petite list used in FoFCou.
          MDV=   16106127360 using IRadAn=       1.
          Solving linear equations simultaneously, MaxMat=       0.
          There are    18 degrees of freedom in the 1st order CPHF.  IDoFFX=6 NUNeed=    18.
     15 vectors produced by pass  0 Test12= 1.70D-14 5.56D-09 XBig12= 7.92D+00 1.23D+00.
 AX will form    15 AO Fock derivatives at one time.
     15 vectors produced by pass  1 Test12= 1.70D-14 5.56D-09 XBig12= 1.35D+00 2.28D-01.
     15 vectors produced by pass  2 Test12= 1.70D-14 5.56D-09 XBig12= 6.51D-02 5.78D-02.
     15 vectors produced by pass  3 Test12= 1.70D-14 5.56D-09 XBig12= 1.95D-03 1.05D-02.
     15 vectors produced by pass  4 Test12= 1.70D-14 5.56D-09 XBig12= 4.10D-05 1.21D-03.
     15 vectors produced by pass  5 Test12= 1.70D-14 5.56D-09 XBig12= 5.76D-07 1.20D-04.
     15 vectors produced by pass  6 Test12= 1.70D-14 5.56D-09 XBig12= 4.55D-09 1.23D-05.
     14 vectors produced by pass  7 Test12= 1.70D-14 5.56D-09 XBig12= 3.43D-11 8.11D-07.
      3 vectors produced by pass  8 Test12= 1.70D-14 5.56D-09 XBig12= 2.35D-13 6.12D-08.
      1 vectors produced by pass  9 Test12= 1.70D-14 5.56D-09 XBig12= 1.60D-15 6.59D-09.
 InvSVY:  IOpt=1 It=  1 EMax= 1.33D-15
 Solved reduced A of dimension   123 with    15 vectors.
 FullF1:  Do perturbations      1 to      18.
 Saving first derivative matrices.
 End of Minotr F.D. properties file   721 does not exist.
 End of Minotr F.D. properties file   722 does not exist.
 End of Minotr F.D. properties file   788 does not exist.
 Leave Link 1002 at Sun Mar  6 19:22:41 2022, MaxMem= 16106127360 cpu:              76.3 elap:               2.9
 (Enter /sw/contrib/gaussian/g16/B01/g16/l811.exe)
 MDV= 16106127360.
 Form MO integral derivatives with frozen-active canonical formalism.
 MOERI=1 MOERIx=1 NAtoms=     5 NAtomX=     5.
 Discarding MO integrals.
 MO basis two electron integral derivatives will not be stored on disk.
 IAlg= 3 DoFC=T DoPWx=T Debug=F.
 Frozen-core window:  NFC=   4 NFV=   0.
 Reordered first order wavefunction length =     18678272
 In DefCFB: NBatch=  1 ICI= 16 ICA=191 LFMax= 96
            Large arrays: LIAPS=   619940160 LIARS=   288257200 words.
 In StABat: MaxSiz= 55 MinSiz= 25 NAtomB=  5
 DoIAMN: NPSUse= 28.
 Leave Link  811 at Sun Mar  6 19:24:03 2022, MaxMem= 16106127360 cpu:            2293.0 elap:              82.0
 (Enter /sw/contrib/gaussian/g16/B01/g16/l804.exe)
 Frozen-core window:  NFC=   4 NFV=   0.
 Closed-shell transformation, MDV= 16106127360 ITran=4 ISComp=1.
 Semi-Direct transformation.
 ModeAB=           2 MOrb=            16 LenV=   16104919939
 LASXX=     67341636 LTotXX=    67341636 LenRXX=    67341636
 LTotAB=    68301760 MaxLAS=    99807120 LenRXY=    99807120
 NonZer=   134683272 LenScr=   202817536 LnRSAI=           0
 LnScr1=           0 LExtra=           0 Total=    369966292
 MaxDsk=          -1 SrtSym=           F ITran=            4
 DoSDTr:  NPSUse= 28
 JobTyp=0 Pass  1:  I=   1 to  16.
 (rs|ai) integrals will be sorted in core.
 Complete sort for first half transformation.
 First half transformation complete.
 Begin second half transformation for I=  10.
 Begin second half transformation for I=  10.
 Complete sort for second half transformation.
 Second half transformation complete.
 Spin components of T(2) and E(2):
     alpha-alpha T2 =       0.3477969752D-01 E2=     -0.1244987205D+00
     alpha-beta  T2 =       0.1844740789D+00 E2=     -0.6995907776D+00
     beta-beta   T2 =       0.3477969752D-01 E2=     -0.1244987205D+00
 ANorm=    0.1583687768D+01
 E2 =    -0.9485882185D+00 EUMP2 =    -0.28045519427923D+03
 Leave Link  804 at Sun Mar  6 19:24:19 2022, MaxMem= 16106127360 cpu:             447.5 elap:              16.0
 (Enter /sw/contrib/gaussian/g16/B01/g16/l1002.exe)
 Minotr:  Closed shell wavefunction.
          Computing MP2/KS-MP2 derivatives.
          Using Z-Vector for PSCF gradient.
          Skipping F1 and S1 gradient terms here.
          IDoAtm=11111
          Frozen-core window.
          Using MO integrals in the linear equations.
          Forming densities via direct SCF.
          Differentiating once with respect to electric field.
                with respect to dipole field.
          Differentiating once with respect to nuclear coordinates.
          Using symmetry in CPHF.
          Requested convergence is 1.0D-10 RMS, and 1.0D-09 maximum.
          NewPWx=F KeepS1=T KeepF1=T KeepIn=T MapXYZ=F SortEE=F KeepMc=T.
          MDV=   16106127360 using IRadAn=       5.
          Solving linear equations separately, MaxMat=       0.
          There are     1 degrees of freedom in the 1st order CPHF.  IDoFFX=0 NUNeed=     1.
 FoFJK:  IHMeth= 1 ICntrl=       0 DoSepK=F KAlg= 0 I1Cent=           0 FoldK=F
 IRaf=         0 NMat=       1 IRICut=       1 DoRegI=T DoRafI=F ISym2E= 0 IDoP0=0 IntGTp=1.
 FoFCou: FMM=F IPFlag=           0 FMFlag=      100000 FMFlg1=           0
         NFxFlg=           0 DoJE=F BraDBF=F KetDBF=F FulRan=T
         wScrn=  0.000000 ICntrl=         0 IOpCl=  0 I1Cent=           0 NGrid=           0
         NMat0=    1 NMatS0=      1 NMatT0=    0 NMatD0=    1 NMtDS0=    0 NMtDT0=    0
 Symmetry not used in FoFCou.
 LinEq1:  Iter=  0 NonCon=     1 RMS=6.58D-03 Max=1.69D-01 NDo=     1
 LinEq1:  Iter=  1 NonCon=     1 RMS=2.00D-03 Max=3.08D-02 NDo=     1
 LinEq1:  Iter=  2 NonCon=     1 RMS=8.86D-04 Max=1.43D-02 NDo=     1
 LinEq1:  Iter=  3 NonCon=     1 RMS=3.81D-04 Max=8.19D-03 NDo=     1
 LinEq1:  Iter=  4 NonCon=     1 RMS=1.37D-04 Max=1.67D-03 NDo=     1
 LinEq1:  Iter=  5 NonCon=     1 RMS=7.64D-05 Max=1.37D-03 NDo=     1
 LinEq1:  Iter=  6 NonCon=     1 RMS=2.43D-05 Max=3.37D-04 NDo=     1
 LinEq1:  Iter=  7 NonCon=     1 RMS=8.14D-06 Max=1.09D-04 NDo=     1
 LinEq1:  Iter=  8 NonCon=     1 RMS=3.97D-06 Max=6.11D-05 NDo=     1
 LinEq1:  Iter=  9 NonCon=     1 RMS=1.04D-06 Max=1.15D-05 NDo=     1
 LinEq1:  Iter= 10 NonCon=     1 RMS=2.31D-07 Max=2.82D-06 NDo=     1
 LinEq1:  Iter= 11 NonCon=     1 RMS=4.98D-08 Max=7.66D-07 NDo=     1
 LinEq1:  Iter= 12 NonCon=     1 RMS=1.17D-08 Max=1.62D-07 NDo=     1
 LinEq1:  Iter= 13 NonCon=     1 RMS=2.06D-09 Max=2.08D-08 NDo=     1
 LinEq1:  Iter= 14 NonCon=     1 RMS=4.27D-10 Max=5.70D-09 NDo=     1
 LinEq1:  Iter= 15 NonCon=     0 RMS=8.74D-11 Max=8.66D-10 NDo=     1
 Linear equations converged to 1.000D-10 1.000D-09 after    15 iterations.
 End of Minotr F.D. properties file   721 does not exist.
 End of Minotr F.D. properties file   722 does not exist.
 End of Minotr F.D. properties file   788 does not exist.
 Leave Link 1002 at Sun Mar  6 19:24:22 2022, MaxMem= 16106127360 cpu:              64.8 elap:               2.4
 (Enter /sw/contrib/gaussian/g16/B01/g16/l1102.exe)
 Use density number 2.
 Symmetrizing basis deriv contribution to polar:
 IMax=3 JMax=2 DiffMx= 0.00D+00
 Leave Link 1102 at Sun Mar  6 19:24:22 2022, MaxMem= 16106127360 cpu:               0.6 elap:               0.1
 (Enter /sw/contrib/gaussian/g16/B01/g16/l1110.exe)
 Forming Gx(P) for generalized density number  2 NAtomX=     5.
 Integral derivatives from FoFJK, PRISM(SPDF).
 Do as many integral derivatives as possible in FoFJK.
 G2DrvN: MDV=   16106126844.
 G2DrvN: will do     6 centers at a time, making    1 passes.
 Calling FoFCou, ICntrl=  3107 FMM=F I1Cent=   0 AccDes= 0.00D+00.
 FoFJK:  IHMeth= 1 ICntrl=    3107 DoSepK=F KAlg= 0 I1Cent=           0 FoldK=F
 IRaf=         0 NMat=       1 IRICut=       1 DoRegI=T DoRafI=F ISym2E= 1 IDoP0=0 IntGTp=1.
 FoFCou: FMM=F IPFlag=           0 FMFlag=      100000 FMFlg1=           0
         NFxFlg=           0 DoJE=F BraDBF=F KetDBF=F FulRan=T
         wScrn=  0.000000 ICntrl=      3107 IOpCl=  0 I1Cent=           0 NGrid=           0
         NMat0=    1 NMatS0=      1 NMatT0=    0 NMatD0=    1 NMtDS0=    0 NMtDT0=    0
 Petite list used in FoFCou.
 End of G2Drv F.D. properties file   721 does not exist.
 End of G2Drv F.D. properties file   722 does not exist.
 End of G2Drv F.D. properties file   788 does not exist.
 Leave Link 1110 at Sun Mar  6 19:24:25 2022, MaxMem= 16106127360 cpu:              87.4 elap:               3.1
 (Enter /sw/contrib/gaussian/g16/B01/g16/l1112.exe)
 MP22nd: MDV=   16106127360
 This link is doing NAtomX=     5 total of    18 degrees of freedom.
 Using ON3 I/O method in MakUI.
 Frozen-core window:  NFC=   4 NFV=   0.
 Using Ix for Sx.
 Use MO integrals over full window.
 Using OV2 memory method for fx*t*t/D, MaxI=    16 DoOO2=F NP=  28.
 R2 and R3 integrals will be kept in memory, NReq=   915591705.
 FoFCou: FMM=F IPFlag=           0 FMFlag=           0 FMFlg1=           0
         NFxFlg=           0 DoJE=F BraDBF=F KetDBF=F FulRan=T
         wScrn=  0.000000 ICntrl=       600 IOpCl=  0 I1Cent=           0 NGrid=           0
         NMat0=    1 NMatS0=      1 NMatT0=    0 NMatD0=    1 NMtDS0=    0 NMtDT0=    0
 Symmetry not used in FoFCou.
 DD1Dir will call FoFMem   1 times, MxPair=       272
 NAB=   136 NAA=     0 NBB=     0.
 Symmetry is being used.
 FoFJK:  IHMeth= 1 ICntrl=       0 DoSepK=F KAlg= 0 I1Cent=           0 FoldK=F
 IRaf=         0 NMat=      18 IRICut=      45 DoRegI=T DoRafI=T ISym2E= 2 IDoP0=3 IntGTp=3.
 Discarding MO integrals.
 Leave Link 1112 at Sun Mar  6 19:24:55 2022, MaxMem= 16106127360 cpu:             840.7 elap:              30.2
 (Enter /sw/contrib/gaussian/g16/B01/g16/l601.exe)
 Copying SCF densities to generalized density rwf, IOpCl= 0 IROHF=0.

 **********************************************************************

            Population analysis using the MP2 Density.

 **********************************************************************

 Orbital symmetries:
       Occupied  (A') (A') (A') (A') (A') (A') (A') (A') (A') (A')
                 (A") (A') (A') (A") (A') (A")
       Virtual   (A') (A") (A') (A') (A") (A') (A') (A') (A") (A')
                 (A") (A') (A') (A') (A") (A') (A') (A") (A') (A')
                 (A') (A') (A') (A') (A") (A') (A') (A") (A') (A')
                 (A') (A") (A") (A') (A') (A') (A") (A') (A") (A')
                 (A") (A") (A') (A') (A") (A') (A') (A") (A') (A')
                 (A') (A") (A') (A') (A") (A') (A") (A') (A") (A')
                 (A') (A') (A") (A') (A') (A') (A") (A") (A') (A')
                 (A") (A') (A") (A') (A") (A') (A") (A') (A') (A')
                 (A") (A') (A') (A") (A') (A") (A") (A') (A') (A')
                 (A') (A') (A") (A") (A') (A') (A") (A") (A') (A')
                 (A") (A') (A") (A') (A") (A') (A') (A') (A") (A")
                 (A') (A') (A') (A') (A") (A') (A') (A') (A") (A')
                 (A") (A") (A') (A') (A") (A") (A') (A") (A') (A')
                 (A') (A') (A") (A') (A') (A") (A") (A') (A') (A')
                 (A") (A") (A') (A') (A') (A") (A') (A') (A') (A")
                 (A') (A') (A') (A") (A") (A') (A") (A') (A') (A")
                 (A') (A") (A') (A") (A") (A') (A') (A") (A") (A")
                 (A') (A") (A") (A') (A') (A") (A') (A') (A') (A")
                 (A') (A') (A') (A') (A') (A') (A') (A') (A') (A')
                 (A')
 The electronic state is 1-A'.
 Alpha  occ. eigenvalues --  -20.71995 -20.68661 -20.66801 -15.82549  -1.64344
 Alpha  occ. eigenvalues --   -1.50454  -1.29369  -0.96038  -0.83376  -0.75852
 Alpha  occ. eigenvalues --   -0.73957  -0.63704  -0.61854  -0.61792  -0.50400
 Alpha  occ. eigenvalues --   -0.49740
 Alpha virt. eigenvalues --    0.03486   0.06071   0.09518   0.10042   0.11993
 Alpha virt. eigenvalues --    0.12260   0.14929   0.15150   0.17763   0.18068
 Alpha virt. eigenvalues --    0.18988   0.21115   0.21655   0.24266   0.24638
 Alpha virt. eigenvalues --    0.26932   0.31221   0.31610   0.33826   0.34362
 Alpha virt. eigenvalues --    0.34609   0.39247   0.44827   0.48695   0.50474
 Alpha virt. eigenvalues --    0.51874   0.54630   0.56151   0.60021   0.62002
 Alpha virt. eigenvalues --    0.63884   0.68862   0.71762   0.72435   0.74390
 Alpha virt. eigenvalues --    0.76297   0.76734   0.79592   0.80651   0.84090
 Alpha virt. eigenvalues --    0.84314   0.85089   0.88567   0.90743   0.93165
 Alpha virt. eigenvalues --    0.94697   0.95469   1.01770   1.03017   1.05973
 Alpha virt. eigenvalues --    1.06503   1.09420   1.14293   1.15627   1.16937
 Alpha virt. eigenvalues --    1.22290   1.22680   1.24482   1.34968   1.36727
 Alpha virt. eigenvalues --    1.37287   1.46865   1.48602   1.50633   1.54012
 Alpha virt. eigenvalues --    1.59628   1.59734   1.60690   1.62881   1.69667
 Alpha virt. eigenvalues --    1.73634   1.80138   1.83038   1.88747   1.88865
 Alpha virt. eigenvalues --    1.92723   1.97944   1.99033   2.05153   2.12324
 Alpha virt. eigenvalues --    2.12837   2.16348   2.18618   2.24433   2.25883
 Alpha virt. eigenvalues --    2.29207   2.34984   2.36457   2.38554   2.40131
 Alpha virt. eigenvalues --    2.43234   2.46933   2.47865   2.52845   2.53648
 Alpha virt. eigenvalues --    2.55101   2.55775   2.61550   2.62909   2.67314
 Alpha virt. eigenvalues --    2.67335   2.75668   2.81378   2.82005   2.83366
 Alpha virt. eigenvalues --    2.91909   2.98492   3.04672   3.05131   3.11438
 Alpha virt. eigenvalues --    3.11473   3.17110   3.20752   3.30650   3.33265
 Alpha virt. eigenvalues --    3.36312   3.47552   3.67896   3.86866   3.92282
 Alpha virt. eigenvalues --    4.18187   4.22178   4.22695   4.26782   4.37084
 Alpha virt. eigenvalues --    4.50174   4.52283   4.55665   4.59335   4.69644
 Alpha virt. eigenvalues --    4.80925   4.89909   4.91383   4.94294   5.00113
 Alpha virt. eigenvalues --    5.00603   5.10650   5.13364   5.18136   5.24896
 Alpha virt. eigenvalues --    5.26111   5.31848   5.33470   5.35846   5.54780
 Alpha virt. eigenvalues --    5.64514   5.70403   5.88460   5.99838   6.26488
 Alpha virt. eigenvalues --    6.29354   6.36292   6.38038   6.59533   6.65656
 Alpha virt. eigenvalues --    6.66231   6.68910   6.72718   6.79902   6.80232
 Alpha virt. eigenvalues --    6.85186   6.96742   7.01137   7.06637   7.08325
 Alpha virt. eigenvalues --    7.14545   7.17405   7.17521   7.20150   7.24539
 Alpha virt. eigenvalues --    7.24610   7.27007   7.34792   7.38952   7.42365
 Alpha virt. eigenvalues --    7.44288   7.46255   7.56019   7.66260   7.66385
 Alpha virt. eigenvalues --    7.79304   7.87951   7.95228   8.05665   8.29858
 Alpha virt. eigenvalues --    8.50327   8.65233  13.61949  14.74923  15.09728
 Alpha virt. eigenvalues --   15.74204
          Condensed to atoms (all electrons):
               1          2          3          4          5
     1  H    0.575542   0.125570   0.025387  -0.001017  -0.006253
     2  O    0.125570   8.389377  -0.231652  -0.000593  -0.008862
     3  O    0.025387  -0.231652   8.371711  -0.168408  -0.034499
     4  N   -0.001017  -0.000593  -0.168408   7.133832  -0.116522
     5  O   -0.006253  -0.008862  -0.034499  -0.116522   8.363238
 Mulliken charges:
               1
     1  H    0.280772
     2  O   -0.273840
     3  O    0.037462
     4  N    0.152707
     5  O   -0.197101
 Sum of Mulliken charges =  -0.00000
 Mulliken charges with hydrogens summed into heavy atoms:
               1
     2  O    0.006932
     3  O    0.037462
     4  N    0.152707
     5  O   -0.197101
 APT charges:
               1
     1  H    0.270889
     2  O   -0.302166
     3  O   -0.309451
     4  N    0.642798
     5  O   -0.302070
 Sum of APT charges =  -0.00000
 APT charges with hydrogens summed into heavy atoms:
               1
     2  O   -0.031278
     3  O   -0.309451
     4  N    0.642798
     5  O   -0.302070
 Electronic spatial extent (au):  <R**2>=            207.3371
 Charge=             -0.0000 electrons
 Dipole moment (field-independent basis, Debye):
    X=              0.0783    Y=             -1.1033    Z=              0.0000  Tot=              1.1061
 Quadrupole moment (field-independent basis, Debye-Ang):
   XX=            -23.3354   YY=            -22.9380   ZZ=            -21.9376
   XY=             -2.0230   XZ=             -0.0000   YZ=              0.0000
 Traceless Quadrupole moment (field-independent basis, Debye-Ang):
   XX=             -0.5984   YY=             -0.2010   ZZ=              0.7994
   XY=             -2.0230   XZ=             -0.0000   YZ=              0.0000
 Octapole moment (field-independent basis, Debye-Ang**2):
  XXX=              2.6629  YYY=              0.2712  ZZZ=             -0.0000  XYY=              2.3917
  XXY=             -2.8907  XXZ=              0.0000  XZZ=             -0.5879  YZZ=             -0.7059
  YYZ=              0.0000  XYZ=             -0.0000
 Hexadecapole moment (field-independent basis, Debye-Ang**3):
 XXXX=           -127.1834 YYYY=            -94.7814 ZZZZ=            -18.0537 XXXY=            -21.7135
 XXXZ=             -0.0000 YYYX=            -19.8520 YYYZ=             -0.0000 ZZZX=             -0.0000
 ZZZY=             -0.0000 XXYY=            -35.6409 XXZZ=            -24.3860 YYZZ=            -18.5825
 XXYZ=             -0.0000 YYXZ=             -0.0000 ZZXY=             -5.9150
 N-N= 1.226977359883D+02 E-N=-9.069600138301D+02  KE= 2.801985146133D+02
 Symmetry A'   KE= 2.663472845851D+02
 Symmetry A"   KE= 1.385123002823D+01
  Exact polarizability:  30.937   4.097  29.875   0.000  -0.000  17.637
 Approx polarizability:  24.531   0.468  27.686   0.000  -0.000  15.526
 No NMR shielding tensors so no spin-rotation constants.
 Leave Link  601 at Sun Mar  6 19:24:55 2022, MaxMem= 16106127360 cpu:               4.0 elap:               0.2
 (Enter /sw/contrib/gaussian/g16/B01/g16/l701.exe)
 ... and contract with generalized density number  2.
 Compute integral second derivatives.
 Leave Link  701 at Sun Mar  6 19:24:56 2022, MaxMem= 16106127360 cpu:               7.2 elap:               0.3
 (Enter /sw/contrib/gaussian/g16/B01/g16/l702.exe)
 L702 exits ... SP integral derivatives will be done elsewhere.
 Leave Link  702 at Sun Mar  6 19:24:56 2022, MaxMem= 16106127360 cpu:               0.5 elap:               0.0
 (Enter /sw/contrib/gaussian/g16/B01/g16/l703.exe)
 Integral derivatives from FoFJK, PRISM(SPDF).
 Compute integral second derivatives, UseDBF=F ICtDFT=           0.
 Calling FoFJK, ICntrl=  10100127 FMM=F ISym2X=1 I1Cent= 0 IOpClX= 0 NMat=1 NMatS=1 NMatT=0.
 FoFJK:  IHMeth= 1 ICntrl=10100127 DoSepK=F KAlg= 0 I1Cent=           0 FoldK=F
 IRaf=         0 NMat=       1 IRICut=       1 DoRegI=T DoRafI=F ISym2E= 1 IDoP0=0 IntGTp=1.
 FoFCou: FMM=F IPFlag=           0 FMFlag=      100000 FMFlg1=         800
         NFxFlg=           0 DoJE=F BraDBF=F KetDBF=F FulRan=T
         wScrn=  0.000000 ICntrl=  10100127 IOpCl=  0 I1Cent=           0 NGrid=           0
         NMat0=    1 NMatS0=      1 NMatT0=    0 NMatD0=    1 NMtDS0=    0 NMtDT0=    0
 Petite list used in FoFCou.
 Leave Link  703 at Sun Mar  6 19:25:12 2022, MaxMem= 16106127360 cpu:             446.3 elap:              16.0
 (Enter /sw/contrib/gaussian/g16/B01/g16/l716.exe)
 Dipole        = 3.08035212D-02-4.34068681D-01 8.48867799D-33
 Polarizability= 3.09366476D+01 4.09700755D+00 2.98749626D+01
                 6.62906227D-31-1.26544256D-31 1.76374927D+01
 Full mass-weighted force constant matrix:
 Low frequencies ---  -23.1367   -0.0017   -0.0009   -0.0003   17.4845   45.3335
 Low frequencies ---  339.8942  396.7293  524.2415
 Diagonal vibrational polarizability:
        7.2896579       9.9696067      17.5195936
 Harmonic frequencies (cm**-1), IR intensities (KM/Mole), Raman scattering
 activities (A**4/AMU), depolarization ratios for plane and unpolarized
 incident light, reduced masses (AMU), force constants (mDyne/A),
 and normal coordinates:
                      1                      2                      3
                     A"                     A'                     A"
 Frequencies --    339.4815               396.7269               524.1778
 Red. masses --      1.5492                 6.9731                 2.9494
 Frc consts  --      0.1052                 0.6466                 0.4775
 IR Inten    --     64.3464                 7.6631                25.4660
  Atom  AN      X      Y      Z        X      Y      Z        X      Y      Z
     1   1     0.00   0.00   0.98    -0.73  -0.25   0.00     0.00   0.00   0.93
     2   8     0.00   0.00  -0.11    -0.32  -0.31  -0.00     0.00   0.00   0.06
     3   8     0.00  -0.00   0.12    -0.06   0.09   0.00    -0.00  -0.00  -0.18
     4   7    -0.00  -0.00  -0.11     0.05   0.09  -0.00     0.00   0.00   0.27
     5   8    -0.00  -0.00   0.03     0.39   0.16  -0.00    -0.00  -0.00  -0.17
                      4                      5                      6
                     A'                     A'                     A'
 Frequencies --    710.3348               834.5210               969.3912
 Red. masses --     13.2784                11.9094                 9.7549
 Frc consts  --      3.9475                 4.8867                 5.4009
 IR Inten    --    217.9912                30.3623                12.7566
  Atom  AN      X      Y      Z        X      Y      Z        X      Y      Z
     1   1    -0.36   0.00   0.00     0.47  -0.16  -0.00    -0.63  -0.02   0.00
     2   8    -0.00  -0.08   0.00     0.52  -0.20   0.00     0.20  -0.17   0.00
     3   8     0.37   0.58  -0.00    -0.37  -0.02  -0.00    -0.36   0.41  -0.00
     4   7    -0.41  -0.46   0.00    -0.43  -0.06   0.00     0.38   0.05   0.00
     5   8     0.01  -0.10  -0.00     0.20   0.28  -0.00    -0.13  -0.28  -0.00
                      7                      8                      9
                     A'                     A'                     A'
 Frequencies --   1422.1008              1567.5147              3493.7083
 Red. masses --      1.2841                 7.2706                 1.0639
 Frc consts  --      1.5300                10.5256                 7.6511
 IR Inten    --     78.9802               149.8787                41.5079
  Atom  AN      X      Y      Z        X      Y      Z        X      Y      Z
     1   1     0.97  -0.19  -0.00    -0.72   0.15   0.00     0.14   0.99   0.00
     2   8    -0.07  -0.05  -0.00     0.02   0.02   0.00    -0.01  -0.06  -0.00
     3   8    -0.02   0.06   0.00    -0.04  -0.06  -0.00     0.00  -0.00   0.00
     4   7     0.06  -0.05  -0.00     0.27  -0.43   0.00    -0.00   0.00   0.00
     5   8    -0.02   0.04   0.00    -0.16   0.40  -0.00     0.00  -0.00  -0.00

 -------------------
 - Thermochemistry -
 -------------------
 Temperature   298.150 Kelvin.  Pressure   1.00000 Atm.
 Atom     1 has atomic number  1 and mass   1.00783
 Atom     2 has atomic number  8 and mass  15.99491
 Atom     3 has atomic number  8 and mass  15.99491
 Atom     4 has atomic number  7 and mass  14.00307
 Atom     5 has atomic number  8 and mass  15.99491
 Molecular mass:    62.99564 amu.
 Principal axes and moments of inertia in atomic units:
                           1         2         3
     Eigenvalues --    84.64722 222.65632 307.30355
           X            0.79704  -0.60392   0.00000
           Y            0.60392   0.79704   0.00000
           Z           -0.00000   0.00000   1.00000
 This molecule is an asymmetric top.
 Rotational symmetry number  1.
 Rotational temperatures (Kelvin)      1.02323     0.38900     0.28185
 Rotational constants (GHZ):          21.32074     8.10550     5.87283
 Zero-point vibrational energy      61356.2 (Joules/Mol)
                                   14.66449 (Kcal/Mol)
 Warning -- explicit consideration of   3 degrees of freedom as
           vibrations may cause significant error
 Vibrational temperatures:    488.44   570.80   754.17  1022.01  1200.69
          (Kelvin)           1394.74  2046.09  2255.30  5026.67
 
 Zero-point correction=                           0.023369 (Hartree/Particle)
 Thermal correction to Energy=                    0.027324
 Thermal correction to Enthalpy=                  0.028268
 Thermal correction to Gibbs Free Energy=        -0.002621
 Sum of electronic and zero-point Energies=           -280.431825
 Sum of electronic and thermal Energies=              -280.427870
 Sum of electronic and thermal Enthalpies=            -280.426926
 Sum of electronic and thermal Free Energies=         -280.457815
 
                     E (Thermal)             CV                S
                      KCal/Mol        Cal/Mol-Kelvin    Cal/Mol-Kelvin
 Total                   17.146             12.206             65.012
 Electronic               0.000              0.000              0.000
 Translational            0.889              2.981             38.341
 Rotational               0.889              2.981             23.275
 Vibrational             15.369              6.244              3.396
 Vibration     1          0.719              1.597              1.215
 Vibration     2          0.763              1.477              0.975
 Vibration     3          0.879              1.196              0.600
                       Q            Log10(Q)             Ln(Q)
 Total Bot       0.160539D+02          1.205580          2.775951
 Total V=0       0.900998D+12         11.954724         27.526769
 Vib (Bot)       0.299852D-10        -10.523093        -24.230316
 Vib (Bot)    1  0.547145D+00         -0.261898         -0.603042
 Vib (Bot)    2  0.450340D+00         -0.346459         -0.797752
 Vib (Bot)    3  0.306755D+00         -0.513208         -1.181705
 Vib (V=0)       0.168287D+01          0.226051          0.520501
 Vib (V=0)    1  0.124119D+01          0.093839          0.216073
 Vib (V=0)    2  0.117291D+01          0.069264          0.159487
 Vib (V=0)    3  0.108660D+01          0.036069          0.083053
 Electronic      0.100000D+01          0.000000          0.000000
 Translational   0.196526D+08          7.293420         16.793719
 Rotational      0.272429D+05          4.435253         10.212548
 
                                                                title
                                                             IR Spectrum
 
     3                                                                      1    1                                                   
     4                                                                      5    4               9    8    7     5    3 3            
     9                                                                      6    2               6    3    1     2    9 3            
     4                                                                      8    2               9    5    0     4    7 9            
 
     X                                                                      X    X               X    X    X     X    X X            
     X                                                                      X    X                    X    X     X      X            
     X                                                                      X    X                    X    X            X            
     X                                                                      X    X                         X            X            
                                                                            X    X                         X            X            
                                                                            X    X                         X            X            
                                                                            X    X                         X                         
                                                                            X                              X                         
                                                                            X                              X                         
                                                                            X                              X                         
                                                                            X                              X                         
                                                                            X                              X                         
                                                                            X                              X                         
                                                                            X                              X                         
                                                                                                           X                         
                                                                                                           X                         
                                                                                                           X                         
                                                                                                           X                         
                                                                                                           X                         
                                                                                                           X                         
 
 ***** Axes restored to original set *****
 -------------------------------------------------------------------
 Center     Atomic                   Forces (Hartrees/Bohr)
 Number     Number              X              Y              Z
 -------------------------------------------------------------------
      1        1           0.002545880    0.000000000    0.000822745
      2        8          -0.002057645   -0.000000000    0.001249623
      3        8          -0.000674639   -0.000000000   -0.001928645
      4        7           0.000024477    0.000000000   -0.000175265
      5        8           0.000161927    0.000000000    0.000031541
 -------------------------------------------------------------------
 Cartesian Forces:  Max     0.002545880 RMS     0.001070427
 -----------------------------------------------------------------------------------------------
                       Internal Coordinate Forces (Hartree/Bohr or radian)
  Cent   Atom   N1       Length/X         N2         Alpha/Y        N3         Beta/Z          J
 -----------------------------------------------------------------------------------------------
      1  H 
      2  O        1  -0.000823(     1)
      3  O        2  -0.000899(     2)      1  -0.004741(     5)
      4  N        3   0.000224(     3)      2   0.000462(     6)      1   0.000000(     8)     0
      5  O        4  -0.000110(     4)      3   0.000278(     7)      2   0.000000(     9)     0
 -----------------------------------------------------------------------------------------------
 Internal  Forces:  Max     0.004740841 RMS     0.001643658
 Force constants in Cartesian coordinates: 
                1             2             3             4             5 
      1  0.701628D-01
      2  0.000000D+00  0.596860D-02
      3  0.221272D-01  0.000000D+00  0.438460D+00
      4 -0.534720D-01  0.000000D+00 -0.432965D-02  0.282602D+00
      5  0.000000D+00 -0.144885D-02  0.000000D+00  0.000000D+00  0.104884D-01
      6  0.330996D-01  0.000000D+00 -0.422050D+00 -0.116321D-01  0.000000D+00
      7 -0.225932D-01  0.000000D+00 -0.148458D-01 -0.168975D+00  0.000000D+00
      8  0.000000D+00 -0.516065D-02  0.000000D+00  0.000000D+00 -0.181855D-01
      9 -0.436741D-01  0.000000D+00 -0.187048D-01  0.100045D-01  0.000000D+00
     10 -0.431183D-02  0.000000D+00  0.578094D-02 -0.852454D-01  0.000000D+00
     11  0.000000D+00  0.793232D-02  0.000000D+00  0.000000D+00  0.197637D-01
     12 -0.188151D-01  0.000000D+00  0.106414D-01  0.973843D-02  0.000000D+00
     13  0.102141D-01  0.000000D+00 -0.873273D-02  0.250899D-01  0.000000D+00
     14  0.000000D+00 -0.729143D-02  0.000000D+00  0.000000D+00 -0.106178D-01
     15  0.726237D-02  0.000000D+00 -0.834641D-02 -0.378118D-02  0.000000D+00
                6             7             8             9            10 
      6  0.523973D+00
      7 -0.914396D-01  0.298971D+00
      8  0.000000D+00  0.000000D+00  0.409550D-01
      9 -0.990652D-01  0.795335D-01  0.000000D+00  0.318087D+00
     10  0.395160D-01 -0.143596D+00  0.000000D+00 -0.378012D-01  0.544246D+00
     11  0.000000D+00  0.000000D+00 -0.476099D-01  0.000000D+00  0.000000D+00
     12 -0.884414D-02  0.132959D-01  0.000000D+00 -0.253448D-01  0.244871D+00
     13  0.304560D-01  0.361931D-01  0.000000D+00 -0.806266D-02 -0.311093D+00
     14  0.000000D+00  0.000000D+00  0.300011D-01  0.000000D+00  0.000000D+00
     15  0.598604D-02  0.134560D-01  0.000000D+00 -0.174972D+00 -0.252367D+00
               11            12            13            14            15 
     11  0.574356D-01
     12  0.000000D+00  0.457527D+00
     13  0.000000D+00 -0.249091D+00  0.239596D+00
     14 -0.375217D-01  0.000000D+00  0.000000D+00  0.254298D-01
     15  0.000000D+00 -0.433980D+00  0.235430D+00  0.000000D+00  0.611312D+00
 Force constants in internal coordinates: 
                1             2             3             4             5 
      1  0.438460D+00
      2  0.207618D-01  0.256183D+00
      3  0.357046D-02  0.179898D-01  0.207908D+00
      4 -0.116407D-01  0.224762D-01  0.148484D+00  0.720949D+00
      5  0.437488D-01  0.513361D-01 -0.239334D-01  0.213546D-01  0.241749D+00
      6  0.101839D-01  0.207053D-01  0.929100D-01  0.889000D-02 -0.126921D-01
      7  0.728705D-02 -0.722172D-01  0.121871D+00  0.116172D+00 -0.212534D-01
      8  0.000000D+00  0.000000D+00  0.000000D+00  0.000000D+00  0.000000D+00
      9  0.000000D+00  0.000000D+00  0.000000D+00  0.000000D+00  0.000000D+00
                6             7             8             9 
      6  0.515302D+00
      7  0.618468D-01  0.662250D+00
      8  0.000000D+00  0.000000D+00  0.193150D-01
      9  0.000000D+00  0.000000D+00  0.273487D-01  0.107314D+00
 Leave Link  716 at Sun Mar  6 19:25:12 2022, MaxMem= 16106127360 cpu:               1.1 elap:               0.1
 (Enter /sw/contrib/gaussian/g16/B01/g16/l103.exe)

 GradGradGradGradGradGradGradGradGradGradGradGradGradGradGradGradGradGrad
 Berny optimization.
 Search for a local minimum.
 Step number   1 out of a maximum of    2
 All quantities printed in internal units (Hartrees-Bohrs-Radians)
 Second derivative matrix not updated -- analytic derivatives used.
 The second derivative matrix:
                          r1        r2        r3        r4        a1
           r1           0.43846
           r2           0.02076   0.25618
           r3           0.00357   0.01799   0.20791
           r4          -0.01164   0.02248   0.14848   0.72095
           a1           0.04375   0.05134  -0.02393   0.02135   0.24175
           a2           0.01018   0.02071   0.09291   0.00889  -0.01269
           a3           0.00729  -0.07222   0.12187   0.11617  -0.02125
           d1           0.00000   0.00000   0.00000  -0.00000  -0.00000
           d2           0.00000  -0.00000  -0.00000  -0.00000  -0.00000
                          a2        a3        d1        d2
           a2           0.51530
           a3           0.06185   0.66225
           d1           0.00000   0.00000   0.01932
           d2          -0.00000   0.00000   0.02735   0.10731
 ITU=  0
     Eigenvalues ---    0.01151   0.11512   0.12401   0.20243   0.26843
     Eigenvalues ---    0.44992   0.50927   0.60704   0.88170
 Angle between quadratic step and forces=  19.01 degrees.
 Linear search not attempted -- first point.
 Variable       Old X    -DE/DX   Delta X   Delta X   Delta X     New X
                                 (Linear)    (Quad)   (Total)
    r1        1.86209  -0.00082   0.00000   0.00012   0.00012   1.86221
    r2        2.69614  -0.00090   0.00000   0.00051   0.00051   2.69665
    r3        2.60992   0.00022   0.00000  -0.00225  -0.00225   2.60766
    r4        2.25782  -0.00011   0.00000   0.00088   0.00088   2.25870
    a1        1.77550  -0.00474   0.00000  -0.02000  -0.02000   1.75551
    a2        1.97463   0.00046   0.00000   0.00077   0.00077   1.97540
    a3        1.99550   0.00028   0.00000   0.00002   0.00002   1.99552
    d1        0.00000   0.00000   0.00000  -0.00000  -0.00000  -0.00000
    d2        0.00000   0.00000   0.00000   0.00000   0.00000   0.00000
         Item               Value     Threshold  Converged?
 Maximum Force            0.004741     0.000450     NO 
 RMS     Force            0.001644     0.000300     NO 
 Maximum Displacement     0.019999     0.001800     NO 
 RMS     Displacement     0.006722     0.001200     NO 
 Predicted change in Energy=-4.700662D-05
                       ----------------------------
                       ! Non-Optimized Parameters !
                       ! (Angstroms and Degrees)  !
 ----------------------                            ----------------------
 !      Name          Value   Derivative information (Atomic Units)     !
 ------------------------------------------------------------------------
 !       r1          0.9854   -DE/DX =   -0.0008                        !
 !       r2          1.427    -DE/DX =   -0.0009                        !
 !       r3          1.3799   -DE/DX =    0.0002                        !
 !       r4          1.1953   -DE/DX =   -0.0001                        !
 !       a1        100.5831   -DE/DX =   -0.0047                        !
 !       a2        113.1819   -DE/DX =    0.0005                        !
 !       a3        114.3351   -DE/DX =    0.0003                        !
 !       d1          0.0      -DE/DX =    0.0                           !
 !       d2          0.0      -DE/DX =    0.0                           !
 ------------------------------------------------------------------------
 GradGradGradGradGradGradGradGradGradGradGradGradGradGradGradGradGradGrad

 Leave Link  103 at Sun Mar  6 19:25:12 2022, MaxMem= 16106127360 cpu:               0.5 elap:               0.0
 (Enter /sw/contrib/gaussian/g16/B01/g16/l9999.exe)

 ----------------------------------------------------------------------

 Electric dipole moment (input orientation):
 (Debye = 10**-18 statcoulomb cm , SI units = C m)
                  (au)            (Debye)         (10**-30 SI)
   Tot        0.435160D+00      0.110607D+01      0.368944D+01
   x         -0.113410D+00     -0.288261D+00     -0.961534D+00
   y          0.000000D+00      0.000000D+00      0.000000D+00
   z         -0.420122D+00     -0.106784D+01     -0.356194D+01

 Dipole polarizability, Alpha (input orientation).
 (esu units = cm**3 , SI units = C**2 m**2 J**-1)
 Alpha(0;0):
               (au)            (10**-24 esu)      (10**-40 SI)
   iso        0.261497D+02      0.387499D+01      0.431150D+01
   aniso      0.146367D+02      0.216893D+01      0.241326D+01
   xx         0.293566D+02      0.435020D+01      0.484025D+01
   yx         0.000000D+00      0.000000D+00      0.000000D+00
   yy         0.176375D+02      0.261361D+01      0.290803D+01
   zx        -0.399580D+01     -0.592117D+00     -0.658819D+00
   zy         0.000000D+00      0.000000D+00      0.000000D+00
   zz         0.314550D+02      0.466115D+01      0.518623D+01

 ----------------------------------------------------------------------

 Dipole orientation:
     1         -0.00000000          0.00000000          0.00000000
     8         -0.48529393          0.00000000         -1.79774201
     8          1.92048730          0.00000000         -3.01486808
     7          3.91901935         -0.00000000         -1.33631904
     8          3.30832928         -0.00000000          0.83734657

 Electric dipole moment (dipole orientation):
 (Debye = 10**-18 statcoulomb cm , SI units = C m)
                  (au)            (Debye)         (10**-30 SI)
   Tot        0.435160D+00      0.110607D+01      0.368944D+01
   x          0.000000D+00      0.000000D+00      0.000000D+00
   y          0.000000D+00      0.000000D+00      0.000000D+00
   z          0.435160D+00      0.110607D+01      0.368944D+01

 Dipole polarizability, Alpha (dipole orientation).
 (esu units = cm**3 , SI units = C**2 m**2 J**-1)
 Alpha(0;0):
               (au)            (10**-24 esu)      (10**-40 SI)
   iso        0.261497D+02      0.387499D+01      0.431150D+01
   aniso      0.146367D+02      0.216893D+01      0.241326D+01
   xx         0.315099D+02      0.466929D+01      0.519528D+01
   yx         0.000000D+00      0.000000D+00      0.000000D+00
   yy         0.176375D+02      0.261361D+01      0.290803D+01
   zx         0.398098D+01      0.589921D+00      0.656376D+00
   zy         0.000000D+00      0.000000D+00      0.000000D+00
   zz         0.293017D+02      0.434207D+01      0.483120D+01

 ----------------------------------------------------------------------
 1\1\GINC-N2174\Freq\RMP2-FC\Aug-CC-pVTZ\H1N1O3\CGAVINH\06-Mar-2022\1\\
 #p freq mp2/aug-cc-pvtz density=current\\title\\0,1\H\O,1,r1\O,2,r2,1,
 a1\N,3,r3,2,a2,1,d1,0\O,4,r4,3,a3,2,d2,0\\r1=0.98537664\r2=1.42673666\
 r3=1.38110764\r4=1.19478846\a1=101.72892145\a2=113.13777052\a3=114.333
 92022\d1=0.\d2=0.\\Version=ES64L-G16RevB.01\State=1-A'\HF=-279.5066061
 \MP2=-280.4551943\RMSD=4.383e-09\RMSF=1.070e-03\ZeroPoint=0.0233693\Th
 ermal=0.0273239\Dipole=-0.1134104,0.,-0.4201221\DipoleDeriv=0.314336,0
 .,0.0419705,0.,0.3006323,0.,-0.0149279,0.,0.1976977,-0.5296361,0.,0.27
 11308,0.,-0.2567439,0.,-0.1195836,0.,-0.1201186,-0.0132638,0.,0.356151
 3,0.,-0.0095172,0.,0.4623085,0.,-0.9055722,0.2158557,0.,-0.1694977,0.,
 0.0121047,0.,-0.6974118,0.,1.7004342,0.0127081,0.,-0.4997549,0.,-0.046
 4758,0.,0.3696148,0.,-0.8724411\Polar=29.356595,0.,17.6374927,-3.99580
 06,0.,31.4550153\Quadrupole=0.1316631,0.5943547,-0.7260177,0.,1.449157
 ,0.\PG=CS [SG(H1N1O3)]\NImag=0\\0.07016285,0.,0.00596860,0.02212724,0.
 ,0.43845996,-0.05347198,0.,-0.00432965,0.28260229,0.,-0.00144885,0.,0.
 ,0.01048843,0.03309964,0.,-0.42205015,-0.01163206,0.,0.52397348,-0.022
 59319,0.,-0.01484580,-0.16897477,0.,-0.09143963,0.29897085,0.,-0.00516
 065,0.,0.,-0.01818554,0.,0.,0.04095497,-0.04367412,0.,-0.01870481,0.01
 000446,0.,-0.09906523,0.07953355,0.,0.31808666,-0.00431183,0.,0.005780
 94,-0.08524541,0.,0.03951600,-0.14359600,0.,-0.03780122,0.54424614,0.,
 0.00793232,0.,0.,0.01976374,0.,0.,-0.04760992,0.,0.,0.05743556,-0.0188
 1513,0.,0.01064141,0.00973843,0.,-0.00884414,0.01329588,0.,-0.02534477
 ,0.24487133,0.,0.45752725,0.01021415,0.,-0.00873273,0.02508988,0.,0.03
 045604,0.03619312,0.,-0.00806266,-0.31109290,0.,-0.24909051,0.23959575
 ,0.,-0.00729143,0.,0.,-0.01061778,0.,0.,0.03000115,0.,0.,-0.03752170,0
 .,0.,0.02542976,0.00726237,0.,-0.00834641,-0.00378118,0.,0.00598604,0.
 01345601,0.,-0.17497185,-0.25236705,0.,-0.43397975,0.23542986,0.,0.611
 31197\\-0.00254588,0.,-0.00082275,0.00205765,0.,-0.00124962,0.00067464
 ,0.,0.00192864,-0.00002448,0.,0.00017526,-0.00016193,0.,-0.00003154\\\
 @


 Ideas are like rabbits. You get a couple and learn
 how to handle them, and pretty soon you have a dozen.
                                    -- John Steinbeck
 Job cpu time:       0 days  1 hours 59 minutes 20.1 seconds.
 Elapsed time:       0 days  0 hours  4 minutes 18.7 seconds.
 File lengths (MBytes):  RWF=   7239 Int=      0 D2E=      0 Chk=      8 Scr=      1
 Normal termination of Gaussian 16 at Sun Mar  6 19:25:13 2022.
