title                                                                   
Freq      RMP2-FC                                                     Aug-CC-pVTZ         
Number of atoms                            I                5
Info1-9                                    I   N=           9
          33          24           0           0           0         100
           6           2           1
Full Title                                 C   N=           1
title       
Route                                      C   N=           4
#p freq mp2/aug-cc-pvtz density=current         
Charge                                     I                0
Multiplicity                               I                1
Number of electrons                        I               32
Number of alpha electrons                  I               16
Number of beta electrons                   I               16
Number of basis functions                  I              207
Number of independent functions            I              207
Number of point charges in /Mol/           I                0
Number of translation vectors              I                0
Atomic numbers                             I   N=           5
           1           8           8           7           8
Nuclear charges                            R   N=           5
  1.00000000E+00  8.00000000E+00  8.00000000E+00  7.00000000E+00  8.00000000E+00
Current cartesian coordinates              R   N=          15
  2.11529086E+00 -1.11177274E+00  0.00000000E+00  2.49351554E+00  7.11502511E-01
  0.00000000E+00  3.11240306E-17  1.73695824E+00  0.00000000E+00 -1.86128805E+00
 -9.25947392E-02  0.00000000E+00 -1.12929986E+00 -2.22846876E+00  0.00000000E+00
Number of symbols in /Mol/                 I                0
Force Field                                I                0
Atom Types                                 C   N=           5
                                                            
Int Atom Types                             I   N=           5
           0           0           0           0           0
MM charges                                 R   N=           5
  0.00000000E+00  0.00000000E+00  0.00000000E+00  0.00000000E+00  0.00000000E+00
Integer atomic weights                     I   N=           5
           1          16          16          14          16
Real atomic weights                        R   N=           5
  1.00782504E+00  1.59949146E+01  1.59949146E+01  1.40030740E+01  1.59949146E+01
Atom fragment info                         I   N=           5
           0           0           0           0           0
Atom residue num                           I   N=           5
           0           0           0           0           0
Nuclear spins                              I   N=           5
           1           0           0           2           0
Nuclear ZEff                               R   N=           5
 -1.00000000E+00 -5.60000000E+00 -5.60000000E+00 -4.55000000E+00 -5.60000000E+00
Nuclear ZNuc                               R   N=           5
  1.00000000E+00  8.00000000E+00  8.00000000E+00  7.00000000E+00  8.00000000E+00
Nuclear QMom                               R   N=           5
  0.00000000E+00  0.00000000E+00  0.00000000E+00  2.04400000E+00  0.00000000E+00
Nuclear GFac                               R   N=           5
  2.79284600E+00  0.00000000E+00  0.00000000E+00  4.03761000E-01  0.00000000E+00
MicOpt                                     I   N=           5
          -1          -1          -1          -1          -1
Number of residues                         I                0
Number of secondary structures             I                0
SymInf integers                            I   N=          26
           1           2           1           1           1           1
           1          -1           0           0           0           0
           0           0           0           0           0           0
           0           0           0           0           0           0
           0           0
RotTr to input orientation                 R   N=          12
 -9.79154235E-01  0.00000000E+00  2.03118153E-01  2.03118153E-01  0.00000000E+00
  9.79154235E-01  0.00000000E+00  1.00000000E+00  0.00000000E+00  2.29701723E+00
  0.00000000E+00  6.58943011E-01
Number of contracted shells                I               65
Number of primitive shells                 I              119
Pure/Cartesian d shells                    I                0
Pure/Cartesian f shells                    I                0
Highest angular momentum                   I                3
Largest degree of contraction              I                7
Shell types                                I   N=          65
           0           0           0           0           1           1
           1          -2          -2           0           0           0
           0           0           1           1           1           1
          -2          -2          -2          -3          -3           0
           0           0           0           0           1           1
           1           1          -2          -2          -2          -3
          -3           0           0           0           0           0
           1           1           1           1          -2          -2
          -2          -3          -3           0           0           0
           0           0           1           1           1           1
          -2          -2          -2          -3          -3
Number of primitives per shell             I   N=          65
           3           1           1           1           1           1
           1           1           1           7           6           1
           1           1           3           1           1           1
           1           1           1           1           1           7
           6           1           1           1           3           1
           1           1           1           1           1           1
           1           7           6           1           1           1
           3           1           1           1           1           1
           1           1           1           7           6           1
           1           1           3           1           1           1
           1           1           1           1           1
Shell to atom map                          I   N=          65
           1           1           1           1           1           1
           1           1           1           2           2           2
           2           2           2           2           2           2
           2           2           2           2           2           3
           3           3           3           3           3           3
           3           3           3           3           3           3
           3           4           4           4           4           4
           4           4           4           4           4           4
           4           4           4           5           5           5
           5           5           5           5           5           5
           5           5           5           5           5
Primitive exponents                        R   N=         119
  3.38700000E+01  5.09500000E+00  1.15900000E+00  3.25800000E-01  1.02700000E-01
  2.52600000E-02  1.40700000E+00  3.88000000E-01  1.02000000E-01  1.05700000E+00
  2.47000000E-01  1.53300000E+04  2.29900000E+03  5.22400000E+02  1.47300000E+02
  4.75500000E+01  1.67600000E+01  6.20700000E+00  5.22400000E+02  1.47300000E+02
  4.75500000E+01  1.67600000E+01  6.20700000E+00  6.88200000E-01  1.75200000E+00
  2.38400000E-01  7.37600000E-02  3.44600000E+01  7.74900000E+00  2.28000000E+00
  7.15600000E-01  2.14000000E-01  5.97400000E-02  2.31400000E+00  6.45000000E-01
  2.14000000E-01  1.42800000E+00  5.00000000E-01  1.53300000E+04  2.29900000E+03
  5.22400000E+02  1.47300000E+02  4.75500000E+01  1.67600000E+01  6.20700000E+00
  5.22400000E+02  1.47300000E+02  4.75500000E+01  1.67600000E+01  6.20700000E+00
  6.88200000E-01  1.75200000E+00  2.38400000E-01  7.37600000E-02  3.44600000E+01
  7.74900000E+00  2.28000000E+00  7.15600000E-01  2.14000000E-01  5.97400000E-02
  2.31400000E+00  6.45000000E-01  2.14000000E-01  1.42800000E+00  5.00000000E-01
  1.14200000E+04  1.71200000E+03  3.89300000E+02  1.10000000E+02  3.55700000E+01
  1.25400000E+01  4.64400000E+00  3.89300000E+02  1.10000000E+02  3.55700000E+01
  1.25400000E+01  4.64400000E+00  5.11800000E-01  1.29300000E+00  1.78700000E-01
  5.76000000E-02  2.66300000E+01  5.94800000E+00  1.74200000E+00  5.55000000E-01
  1.72500000E-01  4.91000000E-02  1.65400000E+00  4.69000000E-01  1.51000000E-01
  1.09300000E+00  3.64000000E-01  1.53300000E+04  2.29900000E+03  5.22400000E+02
  1.47300000E+02  4.75500000E+01  1.67600000E+01  6.20700000E+00  5.22400000E+02
  1.47300000E+02  4.75500000E+01  1.67600000E+01  6.20700000E+00  6.88200000E-01
  1.75200000E+00  2.38400000E-01  7.37600000E-02  3.44600000E+01  7.74900000E+00
  2.28000000E+00  7.15600000E-01  2.14000000E-01  5.97400000E-02  2.31400000E+00
  6.45000000E-01  2.14000000E-01  1.42800000E+00  5.00000000E-01
Contraction coefficients                   R   N=         119
  2.54948632E-02  1.90362766E-01  8.52162022E-01  1.00000000E+00  1.00000000E+00
  1.00000000E+00  1.00000000E+00  1.00000000E+00  1.00000000E+00  1.00000000E+00
  1.00000000E+00  5.19808943E-04  4.02025621E-03  2.07128267E-02  8.10105536E-02
  2.35962985E-01  4.42653446E-01  3.57064423E-01 -4.42115008E-05 -1.22591041E-03
 -1.05517725E-02 -6.74452633E-02 -1.71198607E-01  1.07329856E+00  1.00000000E+00
  1.00000000E+00  1.00000000E+00  4.11634896E-02  2.57762836E-01  8.02419274E-01
  1.00000000E+00  1.00000000E+00  1.00000000E+00  1.00000000E+00  1.00000000E+00
  1.00000000E+00  1.00000000E+00  1.00000000E+00  5.19808943E-04  4.02025621E-03
  2.07128267E-02  8.10105536E-02  2.35962985E-01  4.42653446E-01  3.57064423E-01
 -4.42115008E-05 -1.22591041E-03 -1.05517725E-02 -6.74452633E-02 -1.71198607E-01
  1.07329856E+00  1.00000000E+00  1.00000000E+00  1.00000000E+00  4.11634896E-02
  2.57762836E-01  8.02419274E-01  1.00000000E+00  1.00000000E+00  1.00000000E+00
  1.00000000E+00  1.00000000E+00  1.00000000E+00  1.00000000E+00  1.00000000E+00
  5.34563860E-04  4.13435660E-03  2.12335358E-02  8.25006224E-02  2.38138871E-01
  4.42551547E-01  3.53757422E-01 -4.89867350E-05 -1.19527323E-03 -1.03490714E-02
 -6.48680190E-02 -1.71552477E-01  1.07289568E+00  1.00000000E+00  1.00000000E+00
  1.00000000E+00  3.98072123E-02  2.49002660E-01  8.10479727E-01  1.00000000E+00
  1.00000000E+00  1.00000000E+00  1.00000000E+00  1.00000000E+00  1.00000000E+00
  1.00000000E+00  1.00000000E+00  5.19808943E-04  4.02025621E-03  2.07128267E-02
  8.10105536E-02  2.35962985E-01  4.42653446E-01  3.57064423E-01 -4.42115008E-05
 -1.22591041E-03 -1.05517725E-02 -6.74452633E-02 -1.71198607E-01  1.07329856E+00
  1.00000000E+00  1.00000000E+00  1.00000000E+00  4.11634896E-02  2.57762836E-01
  8.02419274E-01  1.00000000E+00  1.00000000E+00  1.00000000E+00  1.00000000E+00
  1.00000000E+00  1.00000000E+00  1.00000000E+00  1.00000000E+00
Coordinates of each shell                  R   N=         195
  2.11529086E+00 -1.11177274E+00  0.00000000E+00  2.11529086E+00 -1.11177274E+00
  0.00000000E+00  2.11529086E+00 -1.11177274E+00  0.00000000E+00  2.11529086E+00
 -1.11177274E+00  0.00000000E+00  2.11529086E+00 -1.11177274E+00  0.00000000E+00
  2.11529086E+00 -1.11177274E+00  0.00000000E+00  2.11529086E+00 -1.11177274E+00
  0.00000000E+00  2.11529086E+00 -1.11177274E+00  0.00000000E+00  2.11529086E+00
 -1.11177274E+00  0.00000000E+00  2.49351554E+00  7.11502511E-01  0.00000000E+00
  2.49351554E+00  7.11502511E-01  0.00000000E+00  2.49351554E+00  7.11502511E-01
  0.00000000E+00  2.49351554E+00  7.11502511E-01  0.00000000E+00  2.49351554E+00
  7.11502511E-01  0.00000000E+00  2.49351554E+00  7.11502511E-01  0.00000000E+00
  2.49351554E+00  7.11502511E-01  0.00000000E+00  2.49351554E+00  7.11502511E-01
  0.00000000E+00  2.49351554E+00  7.11502511E-01  0.00000000E+00  2.49351554E+00
  7.11502511E-01  0.00000000E+00  2.49351554E+00  7.11502511E-01  0.00000000E+00
  2.49351554E+00  7.11502511E-01  0.00000000E+00  2.49351554E+00  7.11502511E-01
  0.00000000E+00  2.49351554E+00  7.11502511E-01  0.00000000E+00  3.02204813E-17
  1.73695824E+00  0.00000000E+00  3.02204813E-17  1.73695824E+00  0.00000000E+00
  3.02204813E-17  1.73695824E+00  0.00000000E+00  3.02204813E-17  1.73695824E+00
  0.00000000E+00  3.02204813E-17  1.73695824E+00  0.00000000E+00  3.02204813E-17
  1.73695824E+00  0.00000000E+00  3.02204813E-17  1.73695824E+00  0.00000000E+00
  3.02204813E-17  1.73695824E+00  0.00000000E+00  3.02204813E-17  1.73695824E+00
  0.00000000E+00  3.02204813E-17  1.73695824E+00  0.00000000E+00  3.02204813E-17
  1.73695824E+00  0.00000000E+00  3.02204813E-17  1.73695824E+00  0.00000000E+00
  3.02204813E-17  1.73695824E+00  0.00000000E+00  3.02204813E-17  1.73695824E+00
  0.00000000E+00 -1.86128805E+00 -9.25947392E-02  0.00000000E+00 -1.86128805E+00
 -9.25947392E-02  0.00000000E+00 -1.86128805E+00 -9.25947392E-02  0.00000000E+00
 -1.86128805E+00 -9.25947392E-02  0.00000000E+00 -1.86128805E+00 -9.25947392E-02
  0.00000000E+00 -1.86128805E+00 -9.25947392E-02  0.00000000E+00 -1.86128805E+00
 -9.25947392E-02  0.00000000E+00 -1.86128805E+00 -9.25947392E-02  0.00000000E+00
 -1.86128805E+00 -9.25947392E-02  0.00000000E+00 -1.86128805E+00 -9.25947392E-02
  0.00000000E+00 -1.86128805E+00 -9.25947392E-02  0.00000000E+00 -1.86128805E+00
 -9.25947392E-02  0.00000000E+00 -1.86128805E+00 -9.25947392E-02  0.00000000E+00
 -1.86128805E+00 -9.25947392E-02  0.00000000E+00 -1.12929986E+00 -2.22846876E+00
  0.00000000E+00 -1.12929986E+00 -2.22846876E+00  0.00000000E+00 -1.12929986E+00
 -2.22846876E+00  0.00000000E+00 -1.12929986E+00 -2.22846876E+00  0.00000000E+00
 -1.12929986E+00 -2.22846876E+00  0.00000000E+00 -1.12929986E+00 -2.22846876E+00
  0.00000000E+00 -1.12929986E+00 -2.22846876E+00  0.00000000E+00 -1.12929986E+00
 -2.22846876E+00  0.00000000E+00 -1.12929986E+00 -2.22846876E+00  0.00000000E+00
 -1.12929986E+00 -2.22846876E+00  0.00000000E+00 -1.12929986E+00 -2.22846876E+00
  0.00000000E+00 -1.12929986E+00 -2.22846876E+00  0.00000000E+00 -1.12929986E+00
 -2.22846876E+00  0.00000000E+00 -1.12929986E+00 -2.22846876E+00  0.00000000E+00
Num ILSW                                   I              100
ILSW                                       I   N=         100
           0           0           0           0           2           0
           0           0           0           0           0          -1
           5           0           0           0           2           0
           0           0           0           0           1           0
           1           0           0           0           0           0
           0           0      100000           0          -1           0
           0           0           0           0           0           0
           0           0           0           1           1           0
           0 -2000000000           1           0           0           0
           0           0           4          52           0           0
           0           0           0           0           0           0
           0           0           0           5           4           1
           0           0           0           0           0           0
           0           0           0           0           0           0
           0           0           0           0           0           0
           0           0           0           0           0           0
           0           0           0           0
Num RLSW                                   I               52
RLSW                                       R   N=          52
  1.00000000E+00  1.00000000E+00  1.00000000E+00  1.00000000E+00  1.00000000E+00
  0.00000000E+00  0.00000000E+00  1.00000000E+00  0.00000000E+00  0.00000000E+00
  0.00000000E+00  0.00000000E+00  1.00000000E+00  0.00000000E+00  0.00000000E+00
  0.00000000E+00  0.00000000E+00  1.00000000E+00  0.00000000E+00  0.00000000E+00
  0.00000000E+00  0.00000000E+00  1.00000000E+00  0.00000000E+00  0.00000000E+00
  0.00000000E+00  0.00000000E+00  1.00000000E+00  0.00000000E+00  0.00000000E+00
  0.00000000E+00  0.00000000E+00  1.00000000E+00  0.00000000E+00  0.00000000E+00
  0.00000000E+00  0.00000000E+00  0.00000000E+00  1.00000000E+00  1.00000000E+00
  0.00000000E+00  1.00000000E+00  0.00000000E+00  0.00000000E+00  0.00000000E+00
  0.00000000E+00  0.00000000E+00  0.00000000E+00  0.00000000E+00  0.00000000E+00
  0.00000000E+00  0.00000000E+00
MxBond                                     I                2
NBond                                      I   N=           5
           1           2           2           2           1
IBond                                      I   N=          10
           2           0           1           3           2           4
           3           5           4           0
RBond                                      R   N=          10
  1.00000000E+00  0.00000000E+00  1.00000000E+00  1.00000000E+00  1.00000000E+00
  1.00000000E+00  1.00000000E+00  2.00000000E+00  2.00000000E+00  0.00000000E+00
Virial Ratio                               R      2.002261642253235E+00
SCF Energy                                 R     -2.795063077839380E+02
MP2 Energy                                 R     -2.804550810075787E+02
Total Energy                               R     -2.804550810075787E+02
Post-SCF wavefunction norm                 R      1.583809771867599E+00
RMS Force                                  R      2.796523055347055E-03
RMS Density                                R      4.293447554750279E-09
NImag                                      I                0
Job Status                                 I                1
Nuclear derivative order                   I                2
External E-field                           R   N=          35
  0.00000000E+00  0.00000000E+00  0.00000000E+00  0.00000000E+00  0.00000000E+00
  0.00000000E+00  0.00000000E+00  0.00000000E+00  0.00000000E+00  0.00000000E+00
  0.00000000E+00  0.00000000E+00  0.00000000E+00  0.00000000E+00  0.00000000E+00
  0.00000000E+00  0.00000000E+00  0.00000000E+00  0.00000000E+00  0.00000000E+00
  0.00000000E+00  0.00000000E+00  0.00000000E+00  0.00000000E+00  0.00000000E+00
  0.00000000E+00  0.00000000E+00  0.00000000E+00  0.00000000E+00  0.00000000E+00
  0.00000000E+00  0.00000000E+00  0.00000000E+00  0.00000000E+00  0.00000000E+00
IOpCl                                      I                0
IROHF                                      I                0
Alpha Orbital Energies                     R   N=         207
 -2.07210862E+01 -2.06878627E+01 -2.06690757E+01 -1.58252117E+01 -1.64274092E+00
 -1.50687589E+00 -1.29432503E+00 -9.60749937E-01 -8.33097181E-01 -7.58670366E-01
 -7.39769501E-01 -6.39115043E-01 -6.19891080E-01 -6.19193254E-01 -5.02468584E-01
 -4.98206456E-01  3.49545314E-02  6.09653887E-02  9.51045415E-02  1.00569179E-01
  1.19747449E-01  1.22687581E-01  1.48903522E-01  1.51838275E-01  1.77717416E-01
  1.80371156E-01  1.89532987E-01  2.11116762E-01  2.16738609E-01  2.42608012E-01
  2.46354705E-01  2.68188049E-01  3.11191902E-01  3.15376333E-01  3.38101538E-01
  3.42704102E-01  3.46154318E-01  3.92643416E-01  4.46772875E-01  4.88551955E-01
  5.04450382E-01  5.19063651E-01  5.43999052E-01  5.62349193E-01  5.99296573E-01
  6.20895507E-01  6.39687349E-01  6.89198612E-01  7.17407958E-01  7.23776082E-01
  7.38947475E-01  7.65116898E-01  7.67619190E-01  7.95649330E-01  8.04522230E-01
  8.40272637E-01  8.43157396E-01  8.50820543E-01  8.84698391E-01  9.06622473E-01
  9.27038473E-01  9.48925936E-01  9.54713853E-01  1.01785869E+00  1.03162247E+00
  1.05450028E+00  1.06496458E+00  1.09282711E+00  1.14228339E+00  1.15563557E+00
  1.17221868E+00  1.22034488E+00  1.22658996E+00  1.24619053E+00  1.35038264E+00
  1.36423142E+00  1.37051035E+00  1.46919348E+00  1.48355037E+00  1.50721953E+00
  1.54108228E+00  1.59014621E+00  1.59629982E+00  1.60514725E+00  1.62827249E+00
  1.69576773E+00  1.74012432E+00  1.80159586E+00  1.82813159E+00  1.88719789E+00
  1.89653999E+00  1.92667489E+00  1.98035255E+00  1.99136562E+00  2.04885964E+00
  2.12071942E+00  2.13010450E+00  2.16400432E+00  2.18575595E+00  2.24175583E+00
  2.25966579E+00  2.29471846E+00  2.35187478E+00  2.36135303E+00  2.38623903E+00
  2.40196012E+00  2.43363388E+00  2.47045219E+00  2.47840833E+00  2.52615677E+00
  2.53745631E+00  2.54520701E+00  2.55650043E+00  2.61171110E+00  2.62716116E+00
  2.66968728E+00  2.67063612E+00  2.75627324E+00  2.80840350E+00  2.81010432E+00
  2.84282676E+00  2.91656372E+00  2.97576376E+00  3.04879399E+00  3.05458043E+00
  3.11504236E+00  3.11813248E+00  3.17201624E+00  3.21265403E+00  3.30567741E+00
  3.33493703E+00  3.36015968E+00  3.48215908E+00  3.67705315E+00  3.86871650E+00
  3.92395403E+00  4.17990719E+00  4.21551363E+00  4.21800863E+00  4.26544748E+00
  4.36482320E+00  4.50145727E+00  4.50909537E+00  4.55970694E+00  4.60037109E+00
  4.69144414E+00  4.80791363E+00  4.90451488E+00  4.91222526E+00  4.94397960E+00
  4.99512800E+00  5.00459047E+00  5.10839150E+00  5.13494943E+00  5.17623774E+00
  5.24760413E+00  5.25479790E+00  5.31566926E+00  5.33715843E+00  5.35290933E+00
  5.54202346E+00  5.64257402E+00  5.70104618E+00  5.88364047E+00  6.00247299E+00
  6.26396155E+00  6.29594368E+00  6.35895697E+00  6.37617923E+00  6.59879986E+00
  6.64749499E+00  6.65791252E+00  6.68373696E+00  6.72298782E+00  6.80643460E+00
  6.80711195E+00  6.83831637E+00  6.96998656E+00  7.01865320E+00  7.06611571E+00
  7.08052405E+00  7.14097784E+00  7.16233092E+00  7.17536631E+00  7.20252017E+00
  7.24408303E+00  7.24433431E+00  7.26943819E+00  7.34799667E+00  7.39597502E+00
  7.42214119E+00  7.44265482E+00  7.46154152E+00  7.55987957E+00  7.65170505E+00
  7.66365502E+00  7.79437907E+00  7.88198875E+00  7.95283500E+00  8.05364575E+00
  8.30415830E+00  8.50291897E+00  8.65258181E+00  1.36099100E+01  1.47622211E+01
  1.50984513E+01  1.57302916E+01
Alpha MO coefficients                      R   N=       42849
  6.58447434E-05 -5.75326015E-05 -1.11274464E-03  9.19818045E-06 -5.22621419E-05
  4.22556595E-05  0.00000000E+00 -8.09614138E-05 -3.04126817E-04  0.00000000E+00
  4.19599160E-06 -3.45566231E-04  0.00000000E+00  4.35604949E-05  0.00000000E+00
  0.00000000E+00 -2.51313906E-05  1.28995796E-05  2.24640204E-04  0.00000000E+00
  0.00000000E+00 -3.63858321E-05 -2.03288497E-04  3.03752521E-03 -9.55532274E-05
 -1.02103447E-04  3.59272209E-03  2.48230789E-03  1.04175359E-04 -5.21074224E-05
  0.00000000E+00 -7.37793000E-04  2.77189616E-04  0.00000000E+00 -2.01534254E-03
  1.08459920E-03  0.00000000E+00 -5.37772848E-04  3.92466311E-05  0.00000000E+00
  2.05996416E-05  0.00000000E+00  0.00000000E+00 -9.41059790E-06  4.40971750E-05
 -4.46023774E-04  0.00000000E+00  0.00000000E+00  4.36940160E-04 -6.55870297E-04
 -3.66592225E-04  0.00000000E+00  0.00000000E+00  5.56221846E-04 -7.30266422E-04
  0.00000000E+00  7.50998655E-05 -5.15732969E-05  0.00000000E+00  0.00000000E+00
 -2.92820173E-05  1.07244596E-04  0.00000000E+00  2.07466108E-04 -5.07927434E-05
  0.00000000E+00  0.00000000E+00 -1.76315903E-04  2.98348268E-04  9.76907296E-01
 -9.17072359E-03  4.34023964E-02  5.15698255E-04 -2.21247887E-03  4.70685334E-04
 -2.14435254E-03  0.00000000E+00 -3.40561928E-04  2.25048682E-03  0.00000000E+00
 -2.34544992E-03 -4.90493445E-04  0.00000000E+00 -2.25640536E-04  9.74758214E-05
  0.00000000E+00  7.87694413E-06  0.00000000E+00  0.00000000E+00 -4.28987180E-06
  3.75805642E-05  8.28303960E-04  0.00000000E+00  0.00000000E+00 -4.72588549E-04
 -1.78746752E-04 -1.31694525E-04  0.00000000E+00  0.00000000E+00 -5.47378777E-04
  3.55994903E-04  0.00000000E+00 -6.09908968E-06 -7.86358911E-05  0.00000000E+00
  0.00000000E+00 -9.60713767E-06  4.87147053E-05  0.00000000E+00  9.38395983E-05
 -1.35445000E-06  0.00000000E+00  0.00000000E+00 -3.46987998E-04  3.73991012E-04
  1.04261875E-04  4.58209040E-04 -3.22695434E-04 -8.19856995E-04  3.62918092E-04
 -4.21028685E-05 -1.00769182E-04  0.00000000E+00  6.91282391E-04  1.11865549E-03
  0.00000000E+00 -8.20792333E-04 -7.52544868E-04  0.00000000E+00  1.88541449E-04
  2.07739982E-04  0.00000000E+00 -5.23047093E-05  0.00000000E+00  0.00000000E+00
  2.01115710E-05  9.24267705E-05 -4.14935862E-04  0.00000000E+00  0.00000000E+00
  1.80096859E-05  1.09072009E-03  2.77452159E-05  0.00000000E+00  0.00000000E+00
 -3.45771305E-04  2.18513253E-05  0.00000000E+00 -7.74669603E-05 -1.15146508E-04
  0.00000000E+00  0.00000000E+00 -9.77057574E-05  1.05035442E-04  0.00000000E+00
 -1.19159659E-04  5.09394418E-05  0.00000000E+00  0.00000000E+00  1.10846353E-05
  5.30652344E-04 -6.82124633E-04  2.30568623E-05 -7.26369165E-05  1.52428879E-04
 -1.75136023E-04 -3.05375708E-05 -4.34409955E-05  0.00000000E+00  1.77207935E-04
  2.49371137E-04  0.00000000E+00  5.93598785E-04  3.44255707E-04  0.00000000E+00
 -2.02532778E-04 -6.31749496E-05  0.00000000E+00 -1.16272244E-05  0.00000000E+00
  0.00000000E+00  5.03199903E-06  1.20934766E-05 -1.03446265E-05  0.00000000E+00
  0.00000000E+00 -1.73735570E-04  3.29755133E-05 -3.61476031E-05  0.00000000E+00
  0.00000000E+00 -1.75534334E-04 -5.86138217E-06  0.00000000E+00 -6.61456190E-06
 -1.12464372E-05  0.00000000E+00  0.00000000E+00 -2.30825285E-05  7.92550224E-06
  0.00000000E+00  4.04098359E-05  5.71880187E-05  0.00000000E+00  0.00000000E+00
  1.44084399E-04 -1.05649119E-04  4.23332260E-05  6.37712534E-05 -1.40431414E-04
 -3.05521004E-05  1.20990285E-05  5.51013482E-06  0.00000000E+00  2.53601258E-04
  8.43648704E-05  0.00000000E+00  1.37702529E-04  3.40052115E-05  0.00000000E+00
  1.65309365E-05  0.00000000E+00  0.00000000E+00 -1.75714357E-05  1.23164860E-05
  2.75279974E-05  0.00000000E+00  0.00000000E+00 -1.13752823E-04  5.27660383E-05
 -2.48278724E-04  1.54696983E-05 -1.54761853E-05 -5.72788618E-04  1.61966565E-04
  7.59637514E-06  1.37868270E-05  0.00000000E+00  1.92846301E-06 -3.74257074E-05
  0.00000000E+00  1.89986179E-04  1.16864138E-04  0.00000000E+00 -4.98518643E-05
  4.51119518E-05  0.00000000E+00 -3.26235437E-07  0.00000000E+00  0.00000000E+00
 -8.84905245E-06 -1.32543580E-05  1.58477981E-05  0.00000000E+00  0.00000000E+00
  5.06018379E-05  1.10765112E-04  5.59619193E-05  0.00000000E+00  0.00000000E+00
 -2.72329848E-05 -7.31942762E-05  0.00000000E+00  8.00043336E-06  1.06959795E-05
  0.00000000E+00  0.00000000E+00 -1.47662168E-06 -2.23154741E-05  0.00000000E+00
 -1.16319320E-05 -3.10182644E-05  0.00000000E+00  0.00000000E+00 -3.99364675E-06
 -2.29835294E-05  7.06040998E-04  1.88417430E-05 -2.37643853E-05  3.09695562E-04
 -3.78853772E-04  1.76787711E-05  3.06033859E-05  0.00000000E+00 -6.98816652E-05
 -1.63991116E-04  0.00000000E+00  1.88195257E-04 -2.29438567E-04  0.00000000E+00
 -1.52758380E-04  1.42921846E-04  0.00000000E+00 -3.69031942E-06  0.00000000E+00
  0.00000000E+00 -2.69372326E-05 -1.12241331E-05 -5.66838995E-05  0.00000000E+00
  0.00000000E+00  6.18944661E-05  1.32702541E-04 -6.91743616E-05  0.00000000E+00
  0.00000000E+00  3.08514381E-05  2.16068422E-05  0.00000000E+00  4.08992288E-06
  5.87361672E-06  0.00000000E+00  0.00000000E+00 -5.77852400E-06 -5.26126164E-07
  0.00000000E+00  2.84404428E-06 -2.56601216E-05  0.00000000E+00  0.00000000E+00
  1.06058541E-04 -1.46261803E-04  2.37768523E-04  1.36482491E-03 -1.44870288E-04
 -6.68477569E-04  9.05777057E-04  6.39253064E-05 -6.97194100E-05  0.00000000E+00
  5.42427841E-04 -2.11060678E-03  0.00000000E+00  1.16741446E-04  5.26600780E-04
  0.00000000E+00  1.78002653E-04 -3.13933196E-04  0.00000000E+00 -1.28400401E-04
  0.00000000E+00  0.00000000E+00 -2.07058895E-04 -1.52863082E-04 -4.57903974E-04
  0.00000000E+00  0.00000000E+00 -6.39536962E-04 -9.16615222E-04 -4.17158125E-05
  0.00000000E+00  0.00000000E+00  5.17510193E-05  1.19447347E-04  0.00000000E+00
  9.65604397E-06  3.88184635E-05  0.00000000E+00  0.00000000E+00 -2.49526454E-05
 -3.39311716E-06  0.00000000E+00 -1.31311241E-04  1.54901495E-04  0.00000000E+00
  0.00000000E+00 -3.26391526E-04 -3.17477525E-05  9.76649477E-01 -9.89028193E-03
  4.35696346E-02  3.68591429E-03 -8.97774778E-04 -4.08299941E-04  2.14472500E-03
  0.00000000E+00  4.64411861E-04 -2.52530612E-03  0.00000000E+00 -4.92584896E-05
  7.98207545E-04  0.00000000E+00  1.08393586E-04 -6.58958692E-05  0.00000000E+00
 -1.93050384E-04  0.00000000E+00  0.00000000E+00 -7.57595117E-05 -4.36211959E-05
  4.10461360E-04  0.00000000E+00  0.00000000E+00  8.83275371E-04  4.56510426E-04
 -2.04509334E-04  0.00000000E+00  0.00000000E+00 -1.27234162E-04 -3.36644747E-05
  0.00000000E+00 -3.62478889E-06  7.06256936E-05  0.00000000E+00  0.00000000E+00
 -2.98420573E-05  1.17695079E-05  0.00000000E+00 -8.80633987E-05  9.36944618E-05
  0.00000000E+00  0.00000000E+00 -1.56253912E-04  2.17371071E-04  3.79803642E-04
  1.97547606E-03  1.32688994E-03 -2.21557988E-05  4.76054139E-05  2.68954492E-04
  0.00000000E+00  4.01026998E-04  1.03556451E-03  0.00000000E+00 -1.11317503E-04
  2.42832640E-04  0.00000000E+00 -2.25360931E-05  0.00000000E+00  0.00000000E+00
  3.11729216E-05 -2.74901966E-05 -2.13688221E-04  0.00000000E+00  0.00000000E+00
 -3.50265036E-04  3.97037275E-04  9.76835171E-01 -9.18651705E-03  4.34637486E-02
  1.62731011E-04 -1.91194928E-03 -2.03927597E-03 -8.53327836E-04  0.00000000E+00
  2.07362176E-03  7.88017890E-04  0.00000000E+00 -4.27460625E-04  6.55883178E-04
  0.00000000E+00  2.26817744E-04 -2.96725409E-04  0.00000000E+00  3.13276759E-05
  0.00000000E+00  0.00000000E+00 -7.40119387E-05  6.14585811E-05  7.65447297E-04
  0.00000000E+00  0.00000000E+00 -2.09998771E-04  3.51365812E-04 -2.35459894E-04
  0.00000000E+00  0.00000000E+00  3.44064359E-04  4.76321452E-06  0.00000000E+00
 -8.01793752E-05  1.63983653E-06  0.00000000E+00  0.00000000E+00  1.69910817E-05