 Entering Gaussian System, Link 0=g16
 Input=hoono_r2_1p447798.gjf
 Output=hoono_r2_1p447798.log
 Initial command:
 /sw/contrib/gaussian/g16/B01/g16/l1.exe "/scr/Gau-17685.inp" -scrdir="/scr/"
 Entering Link 1 = /sw/contrib/gaussian/g16/B01/g16/l1.exe PID=     17686.
  
 Copyright (c) 1988-2017, Gaussian, Inc.  All Rights Reserved.
  
 This is part of the Gaussian(R) 16 program.  It is based on
 the Gaussian(R) 09 system (copyright 2009, Gaussian, Inc.),
 the Gaussian(R) 03 system (copyright 2003, Gaussian, Inc.),
 the Gaussian(R) 98 system (copyright 1998, Gaussian, Inc.),
 the Gaussian(R) 94 system (copyright 1995, Gaussian, Inc.),
 the Gaussian 92(TM) system (copyright 1992, Gaussian, Inc.),
 the Gaussian 90(TM) system (copyright 1990, Gaussian, Inc.),
 the Gaussian 88(TM) system (copyright 1988, Gaussian, Inc.),
 the Gaussian 86(TM) system (copyright 1986, Carnegie Mellon
 University), and the Gaussian 82(TM) system (copyright 1983,
 Carnegie Mellon University). Gaussian is a federally registered
 trademark of Gaussian, Inc.
  
 This software contains proprietary and confidential information,
 including trade secrets, belonging to Gaussian, Inc.
  
 This software is provided under written license and may be
 used, copied, transmitted, or stored only in accord with that
 written license.
  
 The following legend is applicable only to US Government
 contracts under FAR:
  
                    RESTRICTED RIGHTS LEGEND
  
 Use, reproduction and disclosure by the US Government is
 subject to restrictions as set forth in subparagraphs (a)
 and (c) of the Commercial Computer Software - Restricted
 Rights clause in FAR 52.227-19.
  
 Gaussian, Inc.
 340 Quinnipiac St., Bldg. 40, Wallingford CT 06492
  
  
 ---------------------------------------------------------------
 Warning -- This program may not be used in any manner that
 competes with the business of Gaussian, Inc. or will provide
 assistance to any competitor of Gaussian, Inc.  The licensee
 of this program is prohibited from giving any competitor of
 Gaussian, Inc. access to this program.  By using this program,
 the user acknowledges that Gaussian, Inc. is engaged in the
 business of creating and licensing software in the field of
 computational chemistry and represents and warrants to the
 licensee that it is not a competitor of Gaussian, Inc. and that
 it will not use this program in any manner prohibited above.
 ---------------------------------------------------------------
  

 Cite this work as:
 Gaussian 16, Revision B.01,
 M. J. Frisch, G. W. Trucks, H. B. Schlegel, G. E. Scuseria, 
 M. A. Robb, J. R. Cheeseman, G. Scalmani, V. Barone, 
 G. A. Petersson, H. Nakatsuji, X. Li, M. Caricato, A. V. Marenich, 
 J. Bloino, B. G. Janesko, R. Gomperts, B. Mennucci, H. P. Hratchian, 
 J. V. Ortiz, A. F. Izmaylov, J. L. Sonnenberg, D. Williams-Young, 
 F. Ding, F. Lipparini, F. Egidi, J. Goings, B. Peng, A. Petrone, 
 T. Henderson, D. Ranasinghe, V. G. Zakrzewski, J. Gao, N. Rega, 
 G. Zheng, W. Liang, M. Hada, M. Ehara, K. Toyota, R. Fukuda, 
 J. Hasegawa, M. Ishida, T. Nakajima, Y. Honda, O. Kitao, H. Nakai, 
 T. Vreven, K. Throssell, J. A. Montgomery, Jr., J. E. Peralta, 
 F. Ogliaro, M. J. Bearpark, J. J. Heyd, E. N. Brothers, K. N. Kudin, 
 V. N. Staroverov, T. A. Keith, R. Kobayashi, J. Normand, 
 K. Raghavachari, A. P. Rendell, J. C. Burant, S. S. Iyengar, 
 J. Tomasi, M. Cossi, J. M. Millam, M. Klene, C. Adamo, R. Cammi, 
 J. W. Ochterski, R. L. Martin, K. Morokuma, O. Farkas, 
 J. B. Foresman, and D. J. Fox, Gaussian, Inc., Wallingford CT, 2016.
 
 ******************************************
 Gaussian 16:  ES64L-G16RevB.01 20-Dec-2017
                 6-Mar-2022 
 ******************************************
 %nproc=28
 Will use up to   28 processors via shared memory.
 %mem=120GB
 %chk=hoono_r2_1p447798.chk
 ---------------------------------------
 #p freq mp2/aug-cc-pvtz density=current
 ---------------------------------------
 1/10=4,30=1,38=1/1,3;
 2/12=2,17=6,18=5,40=1/2;
 3/5=16,6=1,7=10,11=9,25=1,30=1,71=2,140=1/1,2,3;
 4//1;
 5/5=2,38=5,98=1/2;
 8/6=3,8=1,10=1,19=11,30=-1/1;
 9/15=3,16=-3/6;
 11/6=1,8=1,15=11,17=12,24=-1,27=1,28=-2,29=300,32=6,42=3/1,2,10;
 10/6=2,21=1/2;
 8/6=4,8=1,10=1,19=11,30=-1/11,4;
 10/5=1,20=4/2;
 11/12=2,14=11,16=1,17=2,28=-2,42=3,76=2/2,10,12;
 6/7=2,8=2,9=2,10=2,22=-1/1;
 7/8=1,10=1,12=2,25=1,44=2/1,2,3,16;
 1/10=4,30=1/3;
 99//99;
 Leave Link    1 at Sun Mar  6 18:55:34 2022, MaxMem= 16106127360 cpu:               3.6 elap:               0.1
 (Enter /sw/contrib/gaussian/g16/B01/g16/l101.exe)
 -----
 title
 -----
 Symbolic Z-matrix:
 Charge =  0 Multiplicity = 1
 H
 O                    1    r1
 O                    2    r2       1    a1
 N                    3    r3       2    a2       1    d1       0
 O                    4    r4       3    a3       2    d2       0
       Variables:
  r1                    0.98538                  
  r2                    1.4478                   
  r3                    1.38111                  
  r4                    1.19479                  
  a1                  100.63551                  
  a2                  113.13777                  
  a3                  114.33392                  
  d1                    0.                       
  d2                    0.                       
 
 ITRead=  0  0  0  0  0
 MicOpt= -1 -1 -1 -1 -1
 NAtoms=      5 NQM=        5 NQMF=       0 NMMI=      0 NMMIF=      0
                NMic=       0 NMicF=      0.
                    Isotopes and Nuclear Properties:
 (Nuclear quadrupole moments (NQMom) in fm**2, nuclear magnetic moments (NMagM)
  in nuclear magnetons)

  Atom         1           2           3           4           5
 IAtWgt=           1          16          16          14          16
 AtmWgt=   1.0078250  15.9949146  15.9949146  14.0030740  15.9949146
 NucSpn=           1           0           0           2           0
 AtZEff=  -0.0000000  -0.0000000  -0.0000000  -0.0000000  -0.0000000
 NQMom=    0.0000000   0.0000000   0.0000000   2.0440000   0.0000000
 NMagM=    2.7928460   0.0000000   0.0000000   0.4037610   0.0000000
 AtZNuc=   1.0000000   8.0000000   8.0000000   7.0000000   8.0000000
 Leave Link  101 at Sun Mar  6 18:55:34 2022, MaxMem= 16106127360 cpu:               3.0 elap:               0.1
 (Enter /sw/contrib/gaussian/g16/B01/g16/l103.exe)

 GradGradGradGradGradGradGradGradGradGradGradGradGradGradGradGradGradGrad
 Berny optimization.
 Initialization pass.
                       ----------------------------
                       !    Initial Parameters    !
                       ! (Angstroms and Degrees)  !
 ----------------------                            ----------------------
 !      Name          Value   Derivative information (Atomic Units)     !
 ------------------------------------------------------------------------
 !       r1          0.9854   calculate D2E/DX2 analytically            !
 !       r2          1.4478   calculate D2E/DX2 analytically            !
 !       r3          1.3811   calculate D2E/DX2 analytically            !
 !       r4          1.1948   calculate D2E/DX2 analytically            !
 !       a1        100.6355   calculate D2E/DX2 analytically            !
 !       a2        113.1378   calculate D2E/DX2 analytically            !
 !       a3        114.3339   calculate D2E/DX2 analytically            !
 !       d1          0.0      calculate D2E/DX2 analytically            !
 !       d2          0.0      calculate D2E/DX2 analytically            !
 ------------------------------------------------------------------------
 Trust Radius=3.00D-01 FncErr=1.00D-07 GrdErr=1.00D-07 EigMax=2.50D+02 EigMin=1.00D-04
 Number of steps in this run=      2 maximum allowed number of steps=      2.
 GradGradGradGradGradGradGradGradGradGradGradGradGradGradGradGradGradGrad

 Leave Link  103 at Sun Mar  6 18:55:34 2022, MaxMem= 16106127360 cpu:               1.3 elap:               0.1
 (Enter /sw/contrib/gaussian/g16/B01/g16/l202.exe)
                          Input orientation:                          
 ---------------------------------------------------------------------
 Center     Atomic      Atomic             Coordinates (Angstroms)
 Number     Number       Type             X           Y           Z
 ---------------------------------------------------------------------
      1          1           0        0.000000    0.000000    0.000000
      2          8           0        0.000000    0.000000    0.985377
      3          8           0        1.422927    0.000000    1.252583
      4          7           0        2.190696    0.000000    0.104546
      5          8           0        1.559451    0.000000   -0.909875
 ---------------------------------------------------------------------
                    Distance matrix (angstroms):
                    1          2          3          4          5
     1  H    0.000000
     2  O    0.985377   0.000000
     3  O    1.895702   1.447799   0.000000
     4  N    2.193189   2.361146   1.381108   0.000000
     5  O    1.805481   2.454357   2.166763   1.194788   0.000000
 Stoichiometry    HNO3
 Framework group  CS[SG(HNO3)]
 Deg. of freedom     7
 Full point group                 CS      NOp   2
 Largest Abelian subgroup         CS      NOp   2
 Largest concise Abelian subgroup C1      NOp   1
                         Standard orientation:                         
 ---------------------------------------------------------------------
 Center     Atomic      Atomic             Coordinates (Angstroms)
 Number     Number       Type             X           Y           Z
 ---------------------------------------------------------------------
      1          1           0        1.119545   -0.610511    0.000000
      2          8           0        1.331905    0.351711    0.000000
      3          8           0        0.000000    0.919295    0.000000
      4          7           0       -0.997142   -0.036303    0.000000
      5          8           0       -0.599349   -1.162927    0.000000
 ---------------------------------------------------------------------
 Rotational constants (GHZ):          21.0432840           8.0492042           5.8221795
 Leave Link  202 at Sun Mar  6 18:55:34 2022, MaxMem= 16106127360 cpu:               0.3 elap:               0.0
 (Enter /sw/contrib/gaussian/g16/B01/g16/l301.exe)
 Standard basis: Aug-CC-pVTZ (5D, 7F)
 Ernie: Thresh=  0.10000D-02 Tol=  0.10000D-05 Strict=F.
 Ernie:  12 primitive shells out of 131 were deleted.
 There are   166 symmetry adapted cartesian basis functions of A'  symmetry.
 There are    79 symmetry adapted cartesian basis functions of A"  symmetry.
 There are   136 symmetry adapted basis functions of A'  symmetry.
 There are    71 symmetry adapted basis functions of A"  symmetry.
   207 basis functions,   315 primitive gaussians,   245 cartesian basis functions
    16 alpha electrons       16 beta electrons
       nuclear repulsion energy       122.1946353742 Hartrees.
 IExCor=    0 DFT=F Ex=HF Corr=None ExCW=0 ScaHFX=  1.000000
 ScaDFX=  1.000000  1.000000  1.000000  1.000000 ScalE2=  1.000000  1.000000
 IRadAn=      5 IRanWt=     -1 IRanGd=            0 ICorTp=0 IEmpDi=  4
 NAtoms=    5 NActive=    5 NUniq=    5 SFac= 1.00D+00 NAtFMM=   60 NAOKFM=F Big=F
 Integral buffers will be    131072 words long.
 Raffenetti 1 integral format.
 Two-electron integral symmetry is turned on.
 Leave Link  301 at Sun Mar  6 18:55:34 2022, MaxMem= 16106127360 cpu:               1.6 elap:               0.1
 (Enter /sw/contrib/gaussian/g16/B01/g16/l302.exe)
 NPDir=0 NMtPBC=     1 NCelOv=     1 NCel=       1 NClECP=     1 NCelD=      1
         NCelK=      1 NCelE2=     1 NClLst=     1 CellRange=     0.0.
 One-electron integrals computed using PRISM.
 One-electron integral symmetry used in STVInt
 NBasis=   207 RedAO= T EigKep=  1.32D-04  NBF=   136    71
 NBsUse=   207 1.00D-06 EigRej= -1.00D+00 NBFU=   136    71
 Leave Link  302 at Sun Mar  6 18:55:34 2022, MaxMem= 16106127360 cpu:               5.8 elap:               0.2
 (Enter /sw/contrib/gaussian/g16/B01/g16/l303.exe)
 DipDrv:  MaxL=1.
 Leave Link  303 at Sun Mar  6 18:55:34 2022, MaxMem= 16106127360 cpu:               1.1 elap:               0.1
 (Enter /sw/contrib/gaussian/g16/B01/g16/l401.exe)
 ExpMin= 2.53D-02 ExpMax= 1.53D+04 ExpMxC= 5.22D+02 IAcc=3 IRadAn=         5 AccDes= 0.00D+00
 Harris functional with IExCor=  205 and IRadAn=       5 diagonalized for initial guess.
 HarFok:  IExCor=  205 AccDes= 0.00D+00 IRadAn=         5 IDoV= 1 UseB2=F ITyADJ=14
 ICtDFT=  3500011 ScaDFX=  1.000000  1.000000  1.000000  1.000000
 FoFCou: FMM=F IPFlag=           0 FMFlag=      100000 FMFlg1=           0
         NFxFlg=           0 DoJE=T BraDBF=F KetDBF=T FulRan=T
         wScrn=  0.000000 ICntrl=       500 IOpCl=  0 I1Cent=   200000004 NGrid=           0
         NMat0=    1 NMatS0=      1 NMatT0=    0 NMatD0=    1 NMtDS0=    0 NMtDT0=    0
 Petite list used in FoFCou.
 Harris En= -279.644249879435    
 JPrj=0 DoOrth=F DoCkMO=F.
 Initial guess orbital symmetries:
       Occupied  (A') (A') (A') (A') (A') (A') (A') (A') (A') (A')
                 (A") (A') (A') (A") (A") (A')
       Virtual   (A") (A') (A') (A') (A') (A") (A') (A') (A') (A')
                 (A") (A') (A") (A') (A') (A") (A') (A') (A") (A')
                 (A') (A') (A') (A') (A") (A') (A') (A') (A") (A')
                 (A') (A") (A") (A') (A') (A") (A') (A") (A') (A")
                 (A') (A") (A') (A") (A') (A') (A') (A") (A') (A')
                 (A') (A") (A') (A") (A') (A") (A') (A') (A') (A")
                 (A') (A') (A") (A') (A') (A') (A") (A") (A') (A')
                 (A") (A') (A") (A") (A') (A') (A") (A') (A') (A')
                 (A") (A') (A') (A") (A') (A") (A") (A') (A') (A')
                 (A') (A") (A') (A") (A') (A') (A") (A') (A") (A')
                 (A") (A') (A") (A') (A") (A') (A') (A') (A") (A')
                 (A") (A') (A') (A') (A") (A') (A') (A') (A") (A')
                 (A") (A') (A') (A") (A") (A") (A") (A') (A') (A')
                 (A') (A') (A') (A") (A') (A") (A') (A") (A') (A')
                 (A") (A') (A") (A') (A') (A") (A') (A') (A') (A')
                 (A") (A') (A') (A") (A") (A') (A") (A') (A") (A')
                 (A') (A") (A") (A') (A") (A') (A') (A") (A") (A')
                 (A") (A") (A") (A') (A') (A") (A') (A') (A') (A")
                 (A') (A') (A') (A') (A') (A') (A') (A') (A') (A')
                 (A')
 The electronic state of the initial guess is 1-A'.
 Leave Link  401 at Sun Mar  6 18:55:35 2022, MaxMem= 16106127360 cpu:               7.0 elap:               0.3
 (Enter /sw/contrib/gaussian/g16/B01/g16/l502.exe)
 Keep R1 ints in memory in symmetry-blocked form, NReq=348887737.
 FoFCou: FMM=F IPFlag=           0 FMFlag=           0 FMFlg1=           0
         NFxFlg=           0 DoJE=F BraDBF=F KetDBF=F FulRan=T
         wScrn=  0.000000 ICntrl=       600 IOpCl=  0 I1Cent=           0 NGrid=           0
         NMat0=    1 NMatS0=  21528 NMatT0=    0 NMatD0=    1 NMtDS0=    0 NMtDT0=    0
 Petite list used in FoFCou.
 Closed shell SCF:
 Using DIIS extrapolation, IDIIS=  1040.
 NGot= 16106127360 LenX= 15988850015 LenY= 15988789549
 Requested convergence on RMS density matrix=1.00D-08 within 128 cycles.
 Requested convergence on MAX density matrix=1.00D-06.
 Requested convergence on             energy=1.00D-06.
 No special actions if energy rises.

 Cycle   1  Pass 1  IDiag  1:
 E= -279.360533414754    
 DIIS: error= 2.76D-02 at cycle   1 NSaved=   1.
 NSaved= 1 IEnMin= 1 EnMin= -279.360533414754     IErMin= 1 ErrMin= 2.76D-02
 ErrMax= 2.76D-02  0.00D+00 EMaxC= 1.00D-01 BMatC= 4.52D-01 BMatP= 4.52D-01
 IDIUse=3 WtCom= 7.24D-01 WtEn= 2.76D-01
 Coeff-Com:  0.100D+01
 Coeff-En:   0.100D+01
 Coeff:      0.100D+01
 Gap=     0.498 Goal=   None    Shift=    0.000
 GapD=    0.498 DampG=2.000 DampE=0.500 DampFc=1.0000 IDamp=-1.
 RMSDP=1.69D-03 MaxDP=8.76D-02              OVMax= 1.26D-01

 Cycle   2  Pass 1  IDiag  1:
 E= -279.441704869722     Delta-E=       -0.081171454968 Rises=F Damp=F
 DIIS: error= 1.96D-02 at cycle   2 NSaved=   2.
 NSaved= 2 IEnMin= 2 EnMin= -279.441704869722     IErMin= 2 ErrMin= 1.96D-02
 ErrMax= 1.96D-02  0.00D+00 EMaxC= 1.00D-01 BMatC= 9.03D-02 BMatP= 4.52D-01
 IDIUse=3 WtCom= 8.04D-01 WtEn= 1.96D-01
 Coeff-Com:  0.226D+00 0.774D+00
 Coeff-En:   0.102D+00 0.898D+00
 Coeff:      0.201D+00 0.799D+00
 Gap=     0.565 Goal=   None    Shift=    0.000
 RMSDP=9.79D-04 MaxDP=3.67D-02 DE=-8.12D-02 OVMax= 9.13D-02

 Cycle   3  Pass 1  IDiag  1:
 E= -279.482268687494     Delta-E=       -0.040563817772 Rises=F Damp=F
 DIIS: error= 1.12D-02 at cycle   3 NSaved=   3.
 NSaved= 3 IEnMin= 3 EnMin= -279.482268687494     IErMin= 3 ErrMin= 1.12D-02
 ErrMax= 1.12D-02  0.00D+00 EMaxC= 1.00D-01 BMatC= 3.11D-02 BMatP= 9.03D-02
 IDIUse=3 WtCom= 8.88D-01 WtEn= 1.12D-01
 Coeff-Com: -0.352D-01 0.359D+00 0.676D+00
 Coeff-En:   0.000D+00 0.209D+00 0.791D+00
 Coeff:     -0.313D-01 0.342D+00 0.689D+00
 Gap=     0.545 Goal=   None    Shift=    0.000
 RMSDP=4.13D-04 MaxDP=1.56D-02 DE=-4.06D-02 OVMax= 3.94D-02

 Cycle   4  Pass 1  IDiag  1:
 E= -279.503632155880     Delta-E=       -0.021363468386 Rises=F Damp=F
 DIIS: error= 1.62D-03 at cycle   4 NSaved=   4.
 NSaved= 4 IEnMin= 4 EnMin= -279.503632155880     IErMin= 4 ErrMin= 1.62D-03
 ErrMax= 1.62D-03  0.00D+00 EMaxC= 1.00D-01 BMatC= 6.39D-04 BMatP= 3.11D-02
 IDIUse=3 WtCom= 9.84D-01 WtEn= 1.62D-02
 Coeff-Com: -0.125D-01 0.484D-01 0.162D+00 0.802D+00
 Coeff-En:   0.000D+00 0.000D+00 0.000D+00 0.100D+01
 Coeff:     -0.123D-01 0.476D-01 0.159D+00 0.805D+00
 Gap=     0.531 Goal=   None    Shift=    0.000
 RMSDP=9.94D-05 MaxDP=2.44D-03 DE=-2.14D-02 OVMax= 1.20D-02

 Cycle   5  Pass 1  IDiag  1:
 E= -279.504463894583     Delta-E=       -0.000831738704 Rises=F Damp=F
 DIIS: error= 1.07D-03 at cycle   5 NSaved=   5.
 NSaved= 5 IEnMin= 5 EnMin= -279.504463894583     IErMin= 5 ErrMin= 1.07D-03
 ErrMax= 1.07D-03  0.00D+00 EMaxC= 1.00D-01 BMatC= 1.05D-04 BMatP= 6.39D-04
 IDIUse=3 WtCom= 9.89D-01 WtEn= 1.07D-02
 Coeff-Com:  0.550D-02-0.660D-01-0.113D+00 0.603D-01 0.111D+01
 Coeff-En:   0.000D+00 0.000D+00 0.000D+00 0.000D+00 0.100D+01
 Coeff:      0.544D-02-0.653D-01-0.111D+00 0.596D-01 0.111D+01
 Gap=     0.535 Goal=   None    Shift=    0.000
 RMSDP=8.02D-05 MaxDP=2.11D-03 DE=-8.32D-04 OVMax= 1.27D-02

 Cycle   6  Pass 1  IDiag  1:
 E= -279.504829813354     Delta-E=       -0.000365918771 Rises=F Damp=F
 DIIS: error= 3.21D-04 at cycle   6 NSaved=   6.
 NSaved= 6 IEnMin= 6 EnMin= -279.504829813354     IErMin= 6 ErrMin= 3.21D-04
 ErrMax= 3.21D-04  0.00D+00 EMaxC= 1.00D-01 BMatC= 2.38D-05 BMatP= 1.05D-04
 IDIUse=3 WtCom= 9.97D-01 WtEn= 3.21D-03
 Coeff-Com:  0.184D-02-0.671D-02-0.172D-01-0.174D+00 0.235D-02 0.119D+01
 Coeff-En:   0.000D+00 0.000D+00 0.000D+00 0.000D+00 0.000D+00 0.100D+01
 Coeff:      0.184D-02-0.669D-02-0.171D-01-0.173D+00 0.234D-02 0.119D+01
 Gap=     0.535 Goal=   None    Shift=    0.000
 RMSDP=4.59D-05 MaxDP=1.07D-03 DE=-3.66D-04 OVMax= 5.90D-03

 Cycle   7  Pass 1  IDiag  1:
 E= -279.504913739795     Delta-E=       -0.000083926441 Rises=F Damp=F
 DIIS: error= 1.30D-04 at cycle   7 NSaved=   7.
 NSaved= 7 IEnMin= 7 EnMin= -279.504913739795     IErMin= 7 ErrMin= 1.30D-04
 ErrMax= 1.30D-04  0.00D+00 EMaxC= 1.00D-01 BMatC= 3.64D-06 BMatP= 2.38D-05
 IDIUse=3 WtCom= 9.99D-01 WtEn= 1.30D-03
 Coeff-Com: -0.105D-02 0.110D-01 0.244D-01 0.110D-01-0.180D+00-0.115D+00
 Coeff-Com:  0.125D+01
 Coeff-En:   0.000D+00 0.000D+00 0.000D+00 0.000D+00 0.000D+00 0.000D+00
 Coeff-En:   0.100D+01
 Coeff:     -0.104D-02 0.110D-01 0.244D-01 0.110D-01-0.180D+00-0.115D+00
 Coeff:      0.125D+01
 Gap=     0.536 Goal=   None    Shift=    0.000
 RMSDP=1.71D-05 MaxDP=4.84D-04 DE=-8.39D-05 OVMax= 2.21D-03

 Cycle   8  Pass 1  IDiag  1:
 E= -279.504925527209     Delta-E=       -0.000011787414 Rises=F Damp=F
 DIIS: error= 4.80D-05 at cycle   8 NSaved=   8.
 NSaved= 8 IEnMin= 8 EnMin= -279.504925527209     IErMin= 8 ErrMin= 4.80D-05
 ErrMax= 4.80D-05  0.00D+00 EMaxC= 1.00D-01 BMatC= 6.36D-07 BMatP= 3.64D-06
 IDIUse=1 WtCom= 1.00D+00 WtEn= 0.00D+00
 Coeff-Com: -0.573D-03 0.412D-02 0.992D-02 0.246D-01-0.582D-01-0.196D+00
 Coeff-Com:  0.356D+00 0.860D+00
 Coeff:     -0.573D-03 0.412D-02 0.992D-02 0.246D-01-0.582D-01-0.196D+00
 Coeff:      0.356D+00 0.860D+00
 Gap=     0.536 Goal=   None    Shift=    0.000
 RMSDP=5.67D-06 MaxDP=1.59D-04 DE=-1.18D-05 OVMax= 6.79D-04

 Cycle   9  Pass 1  IDiag  1:
 E= -279.504926989938     Delta-E=       -0.000001462729 Rises=F Damp=F
 DIIS: error= 2.45D-05 at cycle   9 NSaved=   9.
 NSaved= 9 IEnMin= 9 EnMin= -279.504926989938     IErMin= 9 ErrMin= 2.45D-05
 ErrMax= 2.45D-05  0.00D+00 EMaxC= 1.00D-01 BMatC= 1.13D-07 BMatP= 6.36D-07
 IDIUse=1 WtCom= 1.00D+00 WtEn= 0.00D+00
 Coeff-Com:  0.238D-03-0.248D-02-0.523D-02-0.488D-02 0.455D-01 0.475D-01
 Coeff-Com: -0.329D+00 0.818D-02 0.124D+01
 Coeff:      0.238D-03-0.248D-02-0.523D-02-0.488D-02 0.455D-01 0.475D-01
 Coeff:     -0.329D+00 0.818D-02 0.124D+01
 Gap=     0.536 Goal=   None    Shift=    0.000
 RMSDP=2.44D-06 MaxDP=6.45D-05 DE=-1.46D-06 OVMax= 2.53D-04

 Cycle  10  Pass 1  IDiag  1:
 E= -279.504927248896     Delta-E=       -0.000000258958 Rises=F Damp=F
 DIIS: error= 5.71D-06 at cycle  10 NSaved=  10.
 NSaved=10 IEnMin=10 EnMin= -279.504927248896     IErMin=10 ErrMin= 5.71D-06
 ErrMax= 5.71D-06  0.00D+00 EMaxC= 1.00D-01 BMatC= 8.19D-09 BMatP= 1.13D-07
 IDIUse=1 WtCom= 1.00D+00 WtEn= 0.00D+00
 Coeff-Com: -0.414D-04 0.516D-03 0.125D-02-0.184D-02-0.115D-01 0.513D-02
 Coeff-Com:  0.744D-01-0.435D-01-0.464D+00 0.144D+01
 Coeff:     -0.414D-04 0.516D-03 0.125D-02-0.184D-02-0.115D-01 0.513D-02
 Coeff:      0.744D-01-0.435D-01-0.464D+00 0.144D+01
 Gap=     0.536 Goal=   None    Shift=    0.000
 RMSDP=7.07D-07 MaxDP=2.52D-05 DE=-2.59D-07 OVMax= 7.47D-05

 Cycle  11  Pass 1  IDiag  1:
 E= -279.504927273982     Delta-E=       -0.000000025086 Rises=F Damp=F
 DIIS: error= 2.16D-06 at cycle  11 NSaved=  11.
 NSaved=11 IEnMin=11 EnMin= -279.504927273982     IErMin=11 ErrMin= 2.16D-06
 ErrMax= 2.16D-06  0.00D+00 EMaxC= 1.00D-01 BMatC= 8.36D-10 BMatP= 8.19D-09
 IDIUse=1 WtCom= 1.00D+00 WtEn= 0.00D+00
 Coeff-Com: -0.152D-04 0.151D-03 0.313D-03 0.831D-03-0.186D-02-0.702D-02
 Coeff-Com:  0.165D-01 0.209D-01-0.419D-01-0.338D+00 0.135D+01
 Coeff:     -0.152D-04 0.151D-03 0.313D-03 0.831D-03-0.186D-02-0.702D-02
 Coeff:      0.165D-01 0.209D-01-0.419D-01-0.338D+00 0.135D+01
 Gap=     0.536 Goal=   None    Shift=    0.000
 RMSDP=2.45D-07 MaxDP=9.00D-06 DE=-2.51D-08 OVMax= 2.83D-05

 Cycle  12  Pass 1  IDiag  1:
 E= -279.504927277009     Delta-E=       -0.000000003027 Rises=F Damp=F
 DIIS: error= 7.34D-07 at cycle  12 NSaved=  12.
 NSaved=12 IEnMin=12 EnMin= -279.504927277009     IErMin=12 ErrMin= 7.34D-07
 ErrMax= 7.34D-07  0.00D+00 EMaxC= 1.00D-01 BMatC= 8.90D-11 BMatP= 8.36D-10
 IDIUse=1 WtCom= 1.00D+00 WtEn= 0.00D+00
 Coeff-Com:  0.242D-05-0.431D-04-0.950D-04 0.154D-03 0.112D-02-0.874D-03
 Coeff-Com: -0.705D-02 0.607D-02 0.424D-01-0.123D+00-0.155D+00 0.124D+01
 Coeff:      0.242D-05-0.431D-04-0.950D-04 0.154D-03 0.112D-02-0.874D-03
 Coeff:     -0.705D-02 0.607D-02 0.424D-01-0.123D+00-0.155D+00 0.124D+01
 Gap=     0.536 Goal=   None    Shift=    0.000
 RMSDP=8.52D-08 MaxDP=2.74D-06 DE=-3.03D-09 OVMax= 9.78D-06

 Cycle  13  Pass 1  IDiag  1:
 E= -279.504927277323     Delta-E=       -0.000000000313 Rises=F Damp=F
 DIIS: error= 1.63D-07 at cycle  13 NSaved=  13.
 NSaved=13 IEnMin=13 EnMin= -279.504927277323     IErMin=13 ErrMin= 1.63D-07
 ErrMax= 1.63D-07  0.00D+00 EMaxC= 1.00D-01 BMatC= 7.85D-12 BMatP= 8.90D-11
 IDIUse=1 WtCom= 1.00D+00 WtEn= 0.00D+00
 Coeff-Com:  0.126D-05-0.116D-04-0.162D-04-0.122D-03 0.207D-04 0.963D-03
 Coeff-Com: -0.911D-03-0.270D-02-0.300D-02 0.597D-01-0.139D+00-0.154D+00
 Coeff-Com:  0.124D+01
 Coeff:      0.126D-05-0.116D-04-0.162D-04-0.122D-03 0.207D-04 0.963D-03
 Coeff:     -0.911D-03-0.270D-02-0.300D-02 0.597D-01-0.139D+00-0.154D+00
 Coeff:      0.124D+01
 Gap=     0.536 Goal=   None    Shift=    0.000
 RMSDP=2.39D-08 MaxDP=7.00D-07 DE=-3.13D-10 OVMax= 2.14D-06

 Cycle  14  Pass 1  IDiag  1:
 E= -279.504927277345     Delta-E=       -0.000000000023 Rises=F Damp=F
 DIIS: error= 4.14D-08 at cycle  14 NSaved=  14.
 NSaved=14 IEnMin=14 EnMin= -279.504927277345     IErMin=14 ErrMin= 4.14D-08
 ErrMax= 4.14D-08  0.00D+00 EMaxC= 1.00D-01 BMatC= 5.60D-13 BMatP= 7.85D-12
 IDIUse=1 WtCom= 1.00D+00 WtEn= 0.00D+00
 Coeff-Com: -0.318D-06 0.468D-05 0.914D-05-0.237D-05-0.114D-03 0.479D-04
 Coeff-Com:  0.653D-03-0.212D-03-0.370D-02 0.731D-02 0.194D-01-0.875D-01
 Coeff-Com: -0.537D-01 0.112D+01
 Coeff:     -0.318D-06 0.468D-05 0.914D-05-0.237D-05-0.114D-03 0.479D-04
 Coeff:      0.653D-03-0.212D-03-0.370D-02 0.731D-02 0.194D-01-0.875D-01
 Coeff:     -0.537D-01 0.112D+01
 Gap=     0.536 Goal=   None    Shift=    0.000
 RMSDP=4.83D-09 MaxDP=1.30D-07 DE=-2.25D-11 OVMax= 4.99D-07

 SCF Done:  E(RHF) =  -279.504927277     A.U. after   14 cycles
            NFock= 14  Conv=0.48D-08     -V/T= 2.0024
 KE= 2.788482999798D+02 PE=-9.052495404249D+02 EE= 2.247016777936D+02
 Leave Link  502 at Sun Mar  6 18:55:38 2022, MaxMem= 16106127360 cpu:              55.1 elap:               3.6
 (Enter /sw/contrib/gaussian/g16/B01/g16/l801.exe)
 ExpMin= 2.53D-02 ExpMax= 1.53D+04 ExpMxC= 5.22D+02 IAcc=3 IRadAn=         5 AccDes= 0.00D+00
 HarFok:  IExCor=  205 AccDes= 0.00D+00 IRadAn=         5 IDoV=-2 UseB2=F ITyADJ=14
 ICtDFT= 12500011 ScaDFX=  1.000000  1.000000  1.000000  1.000000
 Largest valence mixing into a core orbital is  2.07D-04
 Largest core mixing into a valence orbital is  3.16D-05
 Range of M.O.s used for correlation:     5   207
 NBasis=   207 NAE=    16 NBE=    16 NFC=     4 NFV=     0
 NROrb=    203 NOA=    12 NOB=    12 NVA=   191 NVB=   191

 **** Warning!!: The largest alpha MO coefficient is  0.16861028D+02

 Leave Link  801 at Sun Mar  6 18:55:38 2022, MaxMem= 16106127360 cpu:               3.2 elap:               0.2
 (Enter /sw/contrib/gaussian/g16/B01/g16/l906.exe)
 Frozen-core derivative calculation, NFC=   4 NFV=   0.
 FulOut=F Deriv=T AODrv=T NAtomX=     5
   MMem=           0  MDisk=          12 MDiskD=          12
  W3Min=      811440 MinDsk=     2425030 NBas6D=         245
 NBas2D=       30762    NTT=       30135    LW2=     7400000
    MDV= 16105571644 MDiskM=      328644 NBas2p=       30759
 Disk-based method using ON**2 memory for 12 occupieds at a time.
 Permanent disk used for amplitudes=    11516536 words.
 Estimated scratch disk usage=   321863743 words.
 IMap=   1   2   3   4   5   6   7   8   9  10  11  12  13  14  15  16
 Actual    scratch disk usage=   310892607 words.
 JobTyp=1 Pass  1:  I=   5 to  16 NPSUse= 28 ParTrn=T ParDer=T DoDerP=T.
 (rs|ai) integrals will be sorted in core.
 Spin components of T(2) and E(2):
     alpha-alpha T2 =       0.3495751204D-01 E2=     -0.1245945932D+00
     alpha-beta  T2 =       0.1858749962D+00 E2=     -0.7009323855D+00
     beta-beta   T2 =       0.3495751204D-01 E2=     -0.1245945932D+00
 The integrals were generated   1 times.
 ANorm=    0.1120620373D+01
 E2 =    -0.9501215719D+00 EUMP2 =    -0.28045504884925D+03
 Leave Link  906 at Sun Mar  6 18:57:15 2022, MaxMem= 16106127360 cpu:            2709.1 elap:              96.9
 (Enter /sw/contrib/gaussian/g16/B01/g16/l1101.exe)
 Using compressed Sx but separate Hx and Fx, NAtomX=     5.
 Will process      6 centers per pass.
 Leave Link 1101 at Sun Mar  6 18:57:16 2022, MaxMem= 16106127360 cpu:               5.3 elap:               0.2
 (Enter /sw/contrib/gaussian/g16/B01/g16/l1102.exe)
 Leave Link 1102 at Sun Mar  6 18:57:16 2022, MaxMem= 16106127360 cpu:               0.6 elap:               0.0
 (Enter /sw/contrib/gaussian/g16/B01/g16/l1110.exe)
 Forming Gx(P) for the SCF density, NAtomX=     5.
 Integral derivatives from FoFJK, PRISM(SPDF).
 Do as many integral derivatives as possible in FoFJK.
 G2DrvN: MDV=   16106126844.
 G2DrvN: will do     6 centers at a time, making    1 passes.
 Calling FoFCou, ICntrl=  3107 FMM=F I1Cent=   0 AccDes= 0.00D+00.
 FoFJK:  IHMeth= 1 ICntrl=    3107 DoSepK=F KAlg= 0 I1Cent=           0 FoldK=F
 IRaf=         0 NMat=       1 IRICut=       1 DoRegI=T DoRafI=F ISym2E= 1 IDoP0=0 IntGTp=1.
 FoFCou: FMM=F IPFlag=           0 FMFlag=      100000 FMFlg1=           0
         NFxFlg=           0 DoJE=F BraDBF=F KetDBF=F FulRan=T
         wScrn=  0.000000 ICntrl=      3107 IOpCl=  0 I1Cent=           0 NGrid=           0
         NMat0=    1 NMatS0=      1 NMatT0=    0 NMatD0=    1 NMtDS0=    0 NMtDT0=    0
 Petite list used in FoFCou.
 End of G2Drv F.D. properties file   721 does not exist.
 End of G2Drv F.D. properties file   722 does not exist.
 End of G2Drv F.D. properties file   788 does not exist.
 Leave Link 1110 at Sun Mar  6 18:57:19 2022, MaxMem= 16106127360 cpu:              87.0 elap:               3.1
 (Enter /sw/contrib/gaussian/g16/B01/g16/l1002.exe)
 Minotr:  Closed shell wavefunction.
          IDoAtm=11111
          Frozen-core window.
          Direct CPHF calculation.
          Differentiating once with respect to electric field.
                with respect to dipole field.
          Differentiating once with respect to nuclear coordinates.
          Requested convergence is 1.0D-08 RMS, and 1.0D-07 maximum.
          Secondary convergence is 1.0D-12 RMS, and 1.0D-12 maximum.
          NewPWx=T KeepS1=T KeepF1=T KeepIn=T MapXYZ=F SortEE=F KeepMc=T.
 Keep R1 ints in memory in symmetry-blocked form, NReq=348888983.
 FoFCou: FMM=F IPFlag=           0 FMFlag=           0 FMFlg1=           0
         NFxFlg=           0 DoJE=F BraDBF=F KetDBF=F FulRan=T
         wScrn=  0.000000 ICntrl=       600 IOpCl=  0 I1Cent=           0 NGrid=           0
         NMat0=    1 NMatS0=  21528 NMatT0=    0 NMatD0=    1 NMtDS0=    0 NMtDT0=    0
 Petite list used in FoFCou.
          MDV=   16106127360 using IRadAn=       1.
          Solving linear equations simultaneously, MaxMat=       0.
          There are    18 degrees of freedom in the 1st order CPHF.  IDoFFX=6 NUNeed=    18.
     15 vectors produced by pass  0 Test12= 1.70D-14 5.56D-09 XBig12= 7.95D+00 1.23D+00.
 AX will form    15 AO Fock derivatives at one time.
     15 vectors produced by pass  1 Test12= 1.70D-14 5.56D-09 XBig12= 1.36D+00 2.43D-01.
     15 vectors produced by pass  2 Test12= 1.70D-14 5.56D-09 XBig12= 6.99D-02 5.65D-02.
     15 vectors produced by pass  3 Test12= 1.70D-14 5.56D-09 XBig12= 2.10D-03 1.10D-02.
     15 vectors produced by pass  4 Test12= 1.70D-14 5.56D-09 XBig12= 4.63D-05 1.19D-03.
     15 vectors produced by pass  5 Test12= 1.70D-14 5.56D-09 XBig12= 6.30D-07 1.19D-04.
     15 vectors produced by pass  6 Test12= 1.70D-14 5.56D-09 XBig12= 4.79D-09 1.13D-05.
     14 vectors produced by pass  7 Test12= 1.70D-14 5.56D-09 XBig12= 3.57D-11 8.20D-07.
      3 vectors produced by pass  8 Test12= 1.70D-14 5.56D-09 XBig12= 2.42D-13 6.21D-08.
      1 vectors produced by pass  9 Test12= 1.70D-14 5.56D-09 XBig12= 1.63D-15 6.85D-09.
 InvSVY:  IOpt=1 It=  1 EMax= 6.66D-16
 Solved reduced A of dimension   123 with    15 vectors.
 FullF1:  Do perturbations      1 to      18.
 Saving first derivative matrices.
 End of Minotr F.D. properties file   721 does not exist.
 End of Minotr F.D. properties file   722 does not exist.
 End of Minotr F.D. properties file   788 does not exist.
 Leave Link 1002 at Sun Mar  6 18:57:22 2022, MaxMem= 16106127360 cpu:              79.9 elap:               3.0
 (Enter /sw/contrib/gaussian/g16/B01/g16/l811.exe)
 MDV= 16106127360.
 Form MO integral derivatives with frozen-active canonical formalism.
 MOERI=1 MOERIx=1 NAtoms=     5 NAtomX=     5.
 Discarding MO integrals.
 MO basis two electron integral derivatives will not be stored on disk.
 IAlg= 3 DoFC=T DoPWx=T Debug=F.
 Frozen-core window:  NFC=   4 NFV=   0.
 Reordered first order wavefunction length =     18678272
 In DefCFB: NBatch=  1 ICI= 16 ICA=191 LFMax= 96
            Large arrays: LIAPS=   619940160 LIARS=   288257200 words.
 In StABat: MaxSiz= 55 MinSiz= 25 NAtomB=  5
 DoIAMN: NPSUse= 28.
 Leave Link  811 at Sun Mar  6 18:58:43 2022, MaxMem= 16106127360 cpu:            2262.3 elap:              81.0
 (Enter /sw/contrib/gaussian/g16/B01/g16/l804.exe)
 Frozen-core window:  NFC=   4 NFV=   0.
 Closed-shell transformation, MDV= 16106127360 ITran=4 ISComp=1.
 Semi-Direct transformation.
 ModeAB=           2 MOrb=            16 LenV=   16104919967
 LASXX=     67341636 LTotXX=    67341636 LenRXX=    67341636
 LTotAB=    68301760 MaxLAS=    99807120 LenRXY=    99807120
 NonZer=   134683272 LenScr=   202817536 LnRSAI=           0
 LnScr1=           0 LExtra=           0 Total=    369966292
 MaxDsk=          -1 SrtSym=           F ITran=            4
 DoSDTr:  NPSUse= 28
 JobTyp=0 Pass  1:  I=   1 to  16.
 (rs|ai) integrals will be sorted in core.
 Complete sort for first half transformation.
 First half transformation complete.
 Begin second half transformation for I=  10.
 Begin second half transformation for I=  10.
 Complete sort for second half transformation.
 Second half transformation complete.
 Spin components of T(2) and E(2):
     alpha-alpha T2 =       0.3495751204D-01 E2=     -0.1245945932D+00
     alpha-beta  T2 =       0.1858749962D+00 E2=     -0.7009323855D+00
     beta-beta   T2 =       0.3495751204D-01 E2=     -0.1245945932D+00
 ANorm=    0.1584796530D+01
 E2 =    -0.9501215719D+00 EUMP2 =    -0.28045504884925D+03
 Leave Link  804 at Sun Mar  6 18:58:59 2022, MaxMem= 16106127360 cpu:             443.7 elap:              15.9
 (Enter /sw/contrib/gaussian/g16/B01/g16/l1002.exe)
 Minotr:  Closed shell wavefunction.
          Computing MP2/KS-MP2 derivatives.
          Using Z-Vector for PSCF gradient.
          Skipping F1 and S1 gradient terms here.
          IDoAtm=11111
          Frozen-core window.
          Using MO integrals in the linear equations.
          Forming densities via direct SCF.
          Differentiating once with respect to electric field.
                with respect to dipole field.
          Differentiating once with respect to nuclear coordinates.
          Using symmetry in CPHF.
          Requested convergence is 1.0D-10 RMS, and 1.0D-09 maximum.
          NewPWx=F KeepS1=T KeepF1=T KeepIn=T MapXYZ=F SortEE=F KeepMc=T.
          MDV=   16106127360 using IRadAn=       5.
          Solving linear equations separately, MaxMat=       0.
          There are     1 degrees of freedom in the 1st order CPHF.  IDoFFX=0 NUNeed=     1.
 FoFJK:  IHMeth= 1 ICntrl=       0 DoSepK=F KAlg= 0 I1Cent=           0 FoldK=F
 IRaf=         0 NMat=       1 IRICut=       1 DoRegI=T DoRafI=F ISym2E= 0 IDoP0=0 IntGTp=1.
 FoFCou: FMM=F IPFlag=           0 FMFlag=      100000 FMFlg1=           0
         NFxFlg=           0 DoJE=F BraDBF=F KetDBF=F FulRan=T
         wScrn=  0.000000 ICntrl=         0 IOpCl=  0 I1Cent=           0 NGrid=           0
         NMat0=    1 NMatS0=      1 NMatT0=    0 NMatD0=    1 NMtDS0=    0 NMtDT0=    0
 Symmetry not used in FoFCou.
 LinEq1:  Iter=  0 NonCon=     1 RMS=6.61D-03 Max=1.66D-01 NDo=     1
 LinEq1:  Iter=  1 NonCon=     1 RMS=1.99D-03 Max=3.06D-02 NDo=     1
 LinEq1:  Iter=  2 NonCon=     1 RMS=8.84D-04 Max=1.49D-02 NDo=     1
 LinEq1:  Iter=  3 NonCon=     1 RMS=3.77D-04 Max=7.95D-03 NDo=     1
 LinEq1:  Iter=  4 NonCon=     1 RMS=1.36D-04 Max=1.66D-03 NDo=     1
 LinEq1:  Iter=  5 NonCon=     1 RMS=7.61D-05 Max=1.35D-03 NDo=     1
 LinEq1:  Iter=  6 NonCon=     1 RMS=2.43D-05 Max=2.85D-04 NDo=     1
 LinEq1:  Iter=  7 NonCon=     1 RMS=8.30D-06 Max=1.08D-04 NDo=     1
 LinEq1:  Iter=  8 NonCon=     1 RMS=4.05D-06 Max=6.67D-05 NDo=     1
 LinEq1:  Iter=  9 NonCon=     1 RMS=1.04D-06 Max=1.17D-05 NDo=     1
 LinEq1:  Iter= 10 NonCon=     1 RMS=2.35D-07 Max=2.79D-06 NDo=     1
 LinEq1:  Iter= 11 NonCon=     1 RMS=5.18D-08 Max=8.06D-07 NDo=     1
 LinEq1:  Iter= 12 NonCon=     1 RMS=1.24D-08 Max=1.61D-07 NDo=     1
 LinEq1:  Iter= 13 NonCon=     1 RMS=2.18D-09 Max=2.38D-08 NDo=     1
 LinEq1:  Iter= 14 NonCon=     1 RMS=4.40D-10 Max=5.47D-09 NDo=     1
 LinEq1:  Iter= 15 NonCon=     0 RMS=9.04D-11 Max=7.65D-10 NDo=     1
 Linear equations converged to 1.000D-10 1.000D-09 after    15 iterations.
 End of Minotr F.D. properties file   721 does not exist.
 End of Minotr F.D. properties file   722 does not exist.
 End of Minotr F.D. properties file   788 does not exist.
 Leave Link 1002 at Sun Mar  6 18:59:01 2022, MaxMem= 16106127360 cpu:              67.7 elap:               2.5
 (Enter /sw/contrib/gaussian/g16/B01/g16/l1102.exe)
 Use density number 2.
 Symmetrizing basis deriv contribution to polar:
 IMax=3 JMax=2 DiffMx= 0.00D+00
 Leave Link 1102 at Sun Mar  6 18:59:01 2022, MaxMem= 16106127360 cpu:               0.6 elap:               0.0
 (Enter /sw/contrib/gaussian/g16/B01/g16/l1110.exe)
 Forming Gx(P) for generalized density number  2 NAtomX=     5.
 Integral derivatives from FoFJK, PRISM(SPDF).
 Do as many integral derivatives as possible in FoFJK.
 G2DrvN: MDV=   16106126844.
 G2DrvN: will do     6 centers at a time, making    1 passes.
 Calling FoFCou, ICntrl=  3107 FMM=F I1Cent=   0 AccDes= 0.00D+00.
 FoFJK:  IHMeth= 1 ICntrl=    3107 DoSepK=F KAlg= 0 I1Cent=           0 FoldK=F
 IRaf=         0 NMat=       1 IRICut=       1 DoRegI=T DoRafI=F ISym2E= 1 IDoP0=0 IntGTp=1.
 FoFCou: FMM=F IPFlag=           0 FMFlag=      100000 FMFlg1=           0
         NFxFlg=           0 DoJE=F BraDBF=F KetDBF=F FulRan=T
         wScrn=  0.000000 ICntrl=      3107 IOpCl=  0 I1Cent=           0 NGrid=           0
         NMat0=    1 NMatS0=      1 NMatT0=    0 NMatD0=    1 NMtDS0=    0 NMtDT0=    0
 Petite list used in FoFCou.
 End of G2Drv F.D. properties file   721 does not exist.
 End of G2Drv F.D. properties file   722 does not exist.
 End of G2Drv F.D. properties file   788 does not exist.
 Leave Link 1110 at Sun Mar  6 18:59:05 2022, MaxMem= 16106127360 cpu:              88.8 elap:               3.2
 (Enter /sw/contrib/gaussian/g16/B01/g16/l1112.exe)
 MP22nd: MDV=   16106127360
 This link is doing NAtomX=     5 total of    18 degrees of freedom.
 Using ON3 I/O method in MakUI.
 Frozen-core window:  NFC=   4 NFV=   0.
 Using Ix for Sx.
 Use MO integrals over full window.
 Using OV2 memory method for fx*t*t/D, MaxI=    16 DoOO2=F NP=  28.
 R2 and R3 integrals will be kept in memory, NReq=   915591705.
 FoFCou: FMM=F IPFlag=           0 FMFlag=           0 FMFlg1=           0
         NFxFlg=           0 DoJE=F BraDBF=F KetDBF=F FulRan=T
         wScrn=  0.000000 ICntrl=       600 IOpCl=  0 I1Cent=           0 NGrid=           0
         NMat0=    1 NMatS0=      1 NMatT0=    0 NMatD0=    1 NMtDS0=    0 NMtDT0=    0
 Symmetry not used in FoFCou.
 DD1Dir will call FoFMem   1 times, MxPair=       272
 NAB=   136 NAA=     0 NBB=     0.
 Symmetry is being used.
 FoFJK:  IHMeth= 1 ICntrl=       0 DoSepK=F KAlg= 0 I1Cent=           0 FoldK=F
 IRaf=         0 NMat=      18 IRICut=      45 DoRegI=T DoRafI=T ISym2E= 2 IDoP0=3 IntGTp=3.
 Discarding MO integrals.
 Leave Link 1112 at Sun Mar  6 18:59:35 2022, MaxMem= 16106127360 cpu:             832.2 elap:              29.9
 (Enter /sw/contrib/gaussian/g16/B01/g16/l601.exe)
 Copying SCF densities to generalized density rwf, IOpCl= 0 IROHF=0.

 **********************************************************************

            Population analysis using the MP2 Density.

 **********************************************************************

 Orbital symmetries:
       Occupied  (A') (A') (A') (A') (A') (A') (A') (A') (A') (A')
                 (A") (A') (A") (A') (A') (A")
       Virtual   (A') (A") (A') (A') (A") (A') (A') (A') (A") (A')
                 (A") (A') (A') (A') (A") (A') (A') (A") (A') (A')
                 (A') (A') (A') (A') (A") (A') (A') (A") (A') (A')
                 (A') (A") (A") (A') (A') (A') (A") (A') (A") (A')
                 (A") (A") (A') (A') (A") (A') (A') (A") (A') (A')
                 (A') (A") (A') (A') (A") (A') (A") (A') (A") (A')
                 (A') (A') (A") (A') (A') (A') (A") (A") (A') (A')
                 (A") (A') (A") (A") (A') (A') (A") (A') (A') (A')
                 (A") (A') (A') (A") (A') (A") (A") (A') (A') (A')
                 (A') (A') (A") (A") (A') (A') (A") (A") (A') (A")
                 (A') (A') (A") (A') (A") (A') (A') (A') (A") (A')
                 (A") (A') (A') (A') (A") (A') (A') (A') (A") (A')
                 (A") (A") (A') (A') (A") (A") (A') (A") (A') (A')
                 (A') (A') (A") (A') (A') (A") (A") (A') (A') (A')
                 (A") (A") (A') (A') (A') (A") (A') (A') (A') (A')
                 (A") (A') (A') (A") (A") (A') (A") (A') (A') (A")
                 (A') (A") (A') (A") (A") (A') (A") (A') (A") (A')
                 (A") (A") (A") (A') (A') (A") (A') (A') (A") (A')
                 (A') (A') (A') (A') (A') (A') (A') (A') (A') (A')
                 (A')
 The electronic state is 1-A'.
 Alpha  occ. eigenvalues --  -20.71968 -20.68693 -20.67029 -15.82628  -1.64112
 Alpha  occ. eigenvalues --   -1.49810  -1.29644  -0.95925  -0.83092  -0.75747
 Alpha  occ. eigenvalues --   -0.73712  -0.64036  -0.61626  -0.61377  -0.50393
 Alpha  occ. eigenvalues --   -0.50098
 Alpha virt. eigenvalues --    0.03481   0.06037   0.09506   0.10008   0.11988
 Alpha virt. eigenvalues --    0.12210   0.14780   0.15074   0.17758   0.18064
 Alpha virt. eigenvalues --    0.18991   0.21088   0.21650   0.23283   0.24633
 Alpha virt. eigenvalues --    0.26932   0.31133   0.31625   0.33752   0.34324
 Alpha virt. eigenvalues --    0.34541   0.39293   0.44840   0.48726   0.50471
 Alpha virt. eigenvalues --    0.51821   0.54582   0.56113   0.59903   0.61965
 Alpha virt. eigenvalues --    0.63835   0.68895   0.71720   0.72478   0.74103
 Alpha virt. eigenvalues --    0.76276   0.76514   0.79707   0.80621   0.84102
 Alpha virt. eigenvalues --    0.84284   0.85196   0.88456   0.90581   0.92801
 Alpha virt. eigenvalues --    0.94732   0.95519   1.01746   1.03028   1.05928
 Alpha virt. eigenvalues --    1.06598   1.09275   1.14235   1.15501   1.16968
 Alpha virt. eigenvalues --    1.22125   1.22711   1.24485   1.34975   1.36302
 Alpha virt. eigenvalues --    1.37120   1.46946   1.48641   1.50545   1.54108
 Alpha virt. eigenvalues --    1.59500   1.59687   1.60527   1.62705   1.69468
 Alpha virt. eigenvalues --    1.73781   1.80083   1.82969   1.88801   1.88900
 Alpha virt. eigenvalues --    1.92786   1.97586   1.98910   2.05146   2.12223
 Alpha virt. eigenvalues --    2.12931   2.16276   2.18692   2.24368   2.25061
 Alpha virt. eigenvalues --    2.29099   2.34758   2.36466   2.38575   2.40281
 Alpha virt. eigenvalues --    2.42315   2.46749   2.47551   2.52880   2.53696
 Alpha virt. eigenvalues --    2.54579   2.55746   2.61418   2.62377   2.66674
 Alpha virt. eigenvalues --    2.66850   2.74464   2.80385   2.81494   2.83518
 Alpha virt. eigenvalues --    2.91291   2.98360   3.04069   3.04571   3.11208
 Alpha virt. eigenvalues --    3.11376   3.16596   3.19943   3.30110   3.32582
 Alpha virt. eigenvalues --    3.36195   3.45793   3.67858   3.86696   3.92272
 Alpha virt. eigenvalues --    4.17845   4.21699   4.22189   4.26357   4.36723
 Alpha virt. eigenvalues --    4.47958   4.51655   4.55160   4.59416   4.69647
 Alpha virt. eigenvalues --    4.80590   4.89631   4.91242   4.93779   4.99992
 Alpha virt. eigenvalues --    5.00602   5.10620   5.12900   5.18009   5.24973
 Alpha virt. eigenvalues --    5.25841   5.31514   5.33243   5.35352   5.54993
 Alpha virt. eigenvalues --    5.64454   5.70081   5.85398   5.99083   6.29166
 Alpha virt. eigenvalues --    6.30097   6.34719   6.38691   6.60386   6.65631
 Alpha virt. eigenvalues --    6.67369   6.69055   6.72897   6.79807   6.79826
 Alpha virt. eigenvalues --    6.85570   6.96547   7.00549   7.05000   7.06920
 Alpha virt. eigenvalues --    7.12960   7.16317   7.16536   7.18869   7.23124
 Alpha virt. eigenvalues --    7.24163   7.26800   7.34270   7.38117   7.41270
 Alpha virt. eigenvalues --    7.44184   7.45155   7.55671   7.64845   7.65466
 Alpha virt. eigenvalues --    7.77780   7.86014   7.94259   8.04786   8.27116
 Alpha virt. eigenvalues --    8.48711   8.63190  13.54085  14.72988  15.08302
 Alpha virt. eigenvalues --   15.73641
          Condensed to atoms (all electrons):
               1          2          3          4          5
     1  H    0.575851   0.125292   0.024230   0.000284  -0.006952
     2  O    0.125292   8.362026  -0.203023   0.001193  -0.008785
     3  O    0.024230  -0.203023   8.351205  -0.170241  -0.034368
     4  N    0.000284   0.001193  -0.170241   7.126471  -0.115553
     5  O   -0.006952  -0.008785  -0.034368  -0.115553   8.360294
 Mulliken charges:
               1
     1  H    0.281296
     2  O   -0.276703
     3  O    0.032197
     4  N    0.157846
     5  O   -0.194636
 Sum of Mulliken charges =  -0.00000
 Mulliken charges with hydrogens summed into heavy atoms:
               1
     2  O    0.004592
     3  O    0.032197
     4  N    0.157846
     5  O   -0.194636
 APT charges:
               1
     1  H    0.270969
     2  O   -0.307443
     3  O   -0.305388
     4  N    0.640910
     5  O   -0.299049
 Sum of APT charges =  -0.00000
 APT charges with hydrogens summed into heavy atoms:
               1
     2  O   -0.036473
     3  O   -0.305388
     4  N    0.640910
     5  O   -0.299049
 Electronic spatial extent (au):  <R**2>=            208.6900
 Charge=             -0.0000 electrons
 Dipole moment (field-independent basis, Debye):
    X=              0.0154    Y=             -1.1205    Z=              0.0000  Tot=              1.1206
 Quadrupole moment (field-independent basis, Debye-Ang):
   XX=            -23.3800   YY=            -22.9058   ZZ=            -21.9612
   XY=             -2.0204   XZ=              0.0000   YZ=              0.0000
 Traceless Quadrupole moment (field-independent basis, Debye-Ang):
   XX=             -0.6310   YY=             -0.1568   ZZ=              0.7878
   XY=             -2.0204   XZ=              0.0000   YZ=              0.0000
 Octapole moment (field-independent basis, Debye-Ang**2):
  XXX=              2.4835  YYY=              0.1478  ZZZ=              0.0000  XYY=              2.4108
  XXY=             -2.8621  XXZ=              0.0000  XZZ=             -0.6365  YZZ=             -0.7319
  YYZ=              0.0000  XYZ=              0.0000
 Hexadecapole moment (field-independent basis, Debye-Ang**3):
 XXXX=           -129.3906 YYYY=            -94.1796 ZZZZ=            -18.0933 XXXY=            -21.4875
 XXXZ=              0.0000 YYYX=            -19.7338 YYYZ=              0.0000 ZZZX=              0.0000
 ZZZY=              0.0000 XXYY=            -35.8900 XXZZ=            -24.7619 YYZZ=            -18.5041
 XXYZ=              0.0000 YYXZ=              0.0000 ZZXY=             -5.8679
 N-N= 1.221946353742D+02 E-N=-9.059472405705D+02  KE= 2.801718685257D+02
 Symmetry A'   KE= 2.663279982722D+02
 Symmetry A"   KE= 1.384387025355D+01
  Exact polarizability:  31.292   4.031  29.853   0.000   0.000  17.679
 Approx polarizability:  25.011   0.360  27.747  -0.000  -0.000  15.546
 No NMR shielding tensors so no spin-rotation constants.
 Leave Link  601 at Sun Mar  6 18:59:35 2022, MaxMem= 16106127360 cpu:               4.2 elap:               0.2
 (Enter /sw/contrib/gaussian/g16/B01/g16/l701.exe)
 ... and contract with generalized density number  2.
 Compute integral second derivatives.
 Leave Link  701 at Sun Mar  6 18:59:35 2022, MaxMem= 16106127360 cpu:               5.7 elap:               0.2
 (Enter /sw/contrib/gaussian/g16/B01/g16/l702.exe)
 L702 exits ... SP integral derivatives will be done elsewhere.
 Leave Link  702 at Sun Mar  6 18:59:35 2022, MaxMem= 16106127360 cpu:               0.6 elap:               0.0
 (Enter /sw/contrib/gaussian/g16/B01/g16/l703.exe)
 Integral derivatives from FoFJK, PRISM(SPDF).
 Compute integral second derivatives, UseDBF=F ICtDFT=           0.
 Calling FoFJK, ICntrl=  10100127 FMM=F ISym2X=1 I1Cent= 0 IOpClX= 0 NMat=1 NMatS=1 NMatT=0.
 FoFJK:  IHMeth= 1 ICntrl=10100127 DoSepK=F KAlg= 0 I1Cent=           0 FoldK=F
 IRaf=         0 NMat=       1 IRICut=       1 DoRegI=T DoRafI=F ISym2E= 1 IDoP0=0 IntGTp=1.
 FoFCou: FMM=F IPFlag=           0 FMFlag=      100000 FMFlg1=         800
         NFxFlg=           0 DoJE=F BraDBF=F KetDBF=F FulRan=T
         wScrn=  0.000000 ICntrl=  10100127 IOpCl=  0 I1Cent=           0 NGrid=           0
         NMat0=    1 NMatS0=      1 NMatT0=    0 NMatD0=    1 NMtDS0=    0 NMtDT0=    0
 Petite list used in FoFCou.
 Leave Link  703 at Sun Mar  6 18:59:51 2022, MaxMem= 16106127360 cpu:             446.8 elap:              16.0
 (Enter /sw/contrib/gaussian/g16/B01/g16/l716.exe)
 Dipole        = 6.04360668D-03-4.40823464D-01 0.00000000D+00
 Polarizability= 3.12924783D+01 4.03117486D+00 2.98532864D+01
                 0.00000000D+00 0.00000000D+00 1.76792334D+01
 Full mass-weighted force constant matrix:
 Low frequencies ---   -0.0008    0.0004    0.0005   13.1992   51.1168   88.8145
 Low frequencies ---  352.9191  393.5866  521.5768
 Diagonal vibrational polarizability:
        7.2509186       9.9993817      16.2667047
 Harmonic frequencies (cm**-1), IR intensities (KM/Mole), Raman scattering
 activities (A**4/AMU), depolarization ratios for plane and unpolarized
 incident light, reduced masses (AMU), force constants (mDyne/A),
 and normal coordinates:
                      1                      2                      3
                     A"                     A'                     A"
 Frequencies --    352.9152               393.5266               521.5214
 Red. masses --      1.5397                 7.0888                 2.9729
 Frc consts  --      0.1130                 0.6468                 0.4764
 IR Inten    --     63.7676                 7.4817                25.1507
  Atom  AN      X      Y      Z        X      Y      Z        X      Y      Z
     1   1     0.00   0.00   0.98    -0.73  -0.24   0.00    -0.00   0.00   0.93
     2   8     0.00   0.00  -0.11    -0.33  -0.31  -0.00     0.00  -0.00   0.06
     3   8    -0.00  -0.00   0.11    -0.06   0.08   0.00    -0.00  -0.00  -0.19
     4   7    -0.00  -0.00  -0.11     0.06   0.09  -0.00     0.00   0.00   0.27
     5   8    -0.00  -0.00   0.03     0.39   0.16   0.00    -0.00   0.00  -0.17
                      4                      5                      6
                     A'                     A'                     A'
 Frequencies --    704.6544               796.8921               949.8321
 Red. masses --     13.2497                13.4345                 9.0509
 Frc consts  --      3.8762                 5.0265                 4.8110
 IR Inten    --    207.1032                35.5979                13.6831
  Atom  AN      X      Y      Z        X      Y      Z        X      Y      Z
     1   1    -0.37   0.02   0.00     0.34  -0.18  -0.00    -0.66   0.02  -0.00
     2   8    -0.04  -0.06   0.00     0.57  -0.26  -0.00     0.12  -0.13   0.00
     3   8     0.41   0.56  -0.00    -0.44   0.09   0.00    -0.28   0.40  -0.00
     4   7    -0.40  -0.45   0.00    -0.40  -0.07  -0.00     0.41   0.04  -0.00
     5   8     0.01  -0.11  -0.00     0.20   0.24   0.00    -0.15  -0.30   0.00
                      7                      8                      9
                     A'                     A'                     A'
 Frequencies --   1414.0069              1565.9171              3496.2568
 Red. masses --      1.2636                 7.7496                 1.0641
 Frc consts  --      1.4885                11.1961                 7.6638
 IR Inten    --     81.1523               148.0861                41.5466
  Atom  AN      X      Y      Z        X      Y      Z        X      Y      Z
     1   1     0.97  -0.21  -0.00    -0.70   0.16   0.00     0.17   0.98   0.00
     2   8    -0.07  -0.05  -0.00     0.02   0.02   0.00    -0.01  -0.06  -0.00
     3   8    -0.02   0.06   0.00    -0.05  -0.06  -0.00     0.00  -0.00   0.00
     4   7     0.06  -0.04  -0.00     0.27  -0.45   0.00    -0.00   0.00   0.00
     5   8    -0.02   0.04   0.00    -0.17   0.42  -0.00     0.00  -0.00  -0.00

 -------------------
 - Thermochemistry -
 -------------------
 Temperature   298.150 Kelvin.  Pressure   1.00000 Atm.
 Atom     1 has atomic number  1 and mass   1.00783
 Atom     2 has atomic number  8 and mass  15.99491
 Atom     3 has atomic number  8 and mass  15.99491
 Atom     4 has atomic number  7 and mass  14.00307
 Atom     5 has atomic number  8 and mass  15.99491
 Molecular mass:    62.99564 amu.
 Principal axes and moments of inertia in atomic units:
                           1         2         3
     Eigenvalues --    85.76329 224.21362 309.97691
           X            0.80734  -0.59008   0.00000
           Y            0.59008   0.80734   0.00000
           Z            0.00000   0.00000   1.00000
 This molecule is an asymmetric top.
 Rotational symmetry number  1.
 Rotational temperatures (Kelvin)      1.00992     0.38630     0.27942
 Rotational constants (GHZ):          21.04328     8.04920     5.82218
 Zero-point vibrational energy      60982.8 (Joules/Mol)
                                   14.57523 (Kcal/Mol)
 Warning -- explicit consideration of   3 degrees of freedom as
           vibrations may cause significant error
 Vibrational temperatures:    507.77   566.20   750.35  1013.84  1146.55
          (Kelvin)           1366.60  2034.44  2253.01  5030.33
 
 Zero-point correction=                           0.023227 (Hartree/Particle)
 Thermal correction to Energy=                    0.027188
 Thermal correction to Enthalpy=                  0.028132
 Thermal correction to Gibbs Free Energy=        -0.002771
 Sum of electronic and zero-point Energies=           -280.431822
 Sum of electronic and thermal Energies=              -280.427861
 Sum of electronic and thermal Enthalpies=            -280.426917
 Sum of electronic and thermal Free Energies=         -280.457820
 
                     E (Thermal)             CV                S
                      KCal/Mol        Cal/Mol-Kelvin    Cal/Mol-Kelvin
 Total                   17.061             12.289             65.041
 Electronic               0.000              0.000              0.000
 Translational            0.889              2.981             38.341
 Rotational               0.889              2.981             23.304
 Vibrational             15.283              6.328              3.397
 Vibration     1          0.729              1.569              1.153
 Vibration     2          0.761              1.484              0.987
 Vibration     3          0.876              1.202              0.606
                       Q            Log10(Q)             Ln(Q)
 Total Bot       0.188267D+02          1.274774          2.935275
 Total V=0       0.908852D+12         11.958493         27.535448
 Vib (Bot)       0.346627D-10        -10.460138        -24.085357
 Vib (Bot)    1  0.521795D+00         -0.282500         -0.650481
 Vib (Bot)    2  0.455056D+00         -0.341936         -0.787336
 Vib (Bot)    3  0.309073D+00         -0.509939         -1.174177
 Vib (V=0)       0.167333D+01          0.223582          0.514816
 Vib (V=0)    1  0.122268D+01          0.087314          0.201047
 Vib (V=0)    2  0.117607D+01          0.070435          0.162182
 Vib (V=0)    3  0.108781D+01          0.036555          0.084171
 Electronic      0.100000D+01          0.000000          0.000000
 Translational   0.196526D+08          7.293420         16.793719
 Rotational      0.276371D+05          4.441492         10.226913
 
                                                                title
                                                             IR Spectrum
 
     3                                                                      1    1                                                   
     4                                                                      5    4                9     7  7      5   3 3            
     9                                                                      6    1                5     9  0      2   9 5            
     6                                                                      6    4                0     7  5      2   4 3            
 
     X                                                                      X    X                X     X  X      X   X X            
     X                                                                      X    X                      X  X      X     X            
     X                                                                      X    X                      X  X            X            
     X                                                                      X    X                         X            X            
                                                                            X    X                         X            X            
                                                                            X    X                         X            X            
                                                                            X    X                         X                         
                                                                            X    X                         X                         
                                                                            X                              X                         
                                                                            X                              X                         
                                                                            X                              X                         
                                                                            X                              X                         
                                                                            X                              X                         
                                                                            X                              X                         
                                                                                                           X                         
                                                                                                           X                         
                                                                                                           X                         
                                                                                                           X                         
                                                                                                           X                         
                                                                                                           X                         
 
 ***** Axes restored to original set *****
 -------------------------------------------------------------------
 Center     Atomic                   Forces (Hartrees/Bohr)
 Number     Number              X              Y              Z
 -------------------------------------------------------------------
      1        1           0.001169489   -0.000000000    0.000801659
      2        8           0.008093392   -0.000000000    0.001531064
      3        8          -0.007690359   -0.000000000   -0.002426191
      4        7          -0.002892730   -0.000000000    0.000229708
      5        8           0.001320207   -0.000000000   -0.000136240
 -------------------------------------------------------------------
 Cartesian Forces:  Max     0.008093392 RMS     0.003109852
 -----------------------------------------------------------------------------------------------
                       Internal Coordinate Forces (Hartree/Bohr or radian)
  Cent   Atom   N1       Length/X         N2         Alpha/Y        N3         Beta/Z          J
 -----------------------------------------------------------------------------------------------
      1  H 
      2  O        1  -0.000802(     1)
      3  O        2  -0.009534(     2)      1  -0.002178(     5)
      4  N        3  -0.000952(     3)      2  -0.000583(     6)      1   0.000000(     8)     0
      5  O        4  -0.000582(     4)      3   0.002693(     7)      2   0.000000(     9)     0
 -----------------------------------------------------------------------------------------------
 Internal  Forces:  Max     0.009534284 RMS     0.003417708
 Force constants in Cartesian coordinates: 
                1             2             3             4             5 
      1  0.695712D-01
      2  0.000000D+00  0.607051D-02
      3  0.220685D-01  0.000000D+00  0.438983D+00
      4 -0.518939D-01  0.000000D+00 -0.514683D-02  0.253330D+00
      5  0.000000D+00 -0.214348D-02  0.000000D+00  0.000000D+00  0.143382D-01
      6  0.314584D-01  0.000000D+00 -0.423688D+00 -0.161945D-01  0.000000D+00
      7 -0.230615D-01  0.000000D+00 -0.137575D-01 -0.144361D+00  0.000000D+00
      8  0.000000D+00 -0.450582D-02  0.000000D+00  0.000000D+00 -0.208713D-01
      9 -0.424210D-01  0.000000D+00 -0.183845D-01  0.135756D-01  0.000000D+00
     10 -0.455408D-02  0.000000D+00  0.570634D-02 -0.813325D-01  0.000000D+00
     11  0.000000D+00  0.774673D-02  0.000000D+00  0.000000D+00  0.188276D-01
     12 -0.181149D-01  0.000000D+00  0.112257D-01  0.120571D-01  0.000000D+00
     13  0.993822D-02  0.000000D+00 -0.887052D-02  0.242569D-01  0.000000D+00
     14  0.000000D+00 -0.716796D-02  0.000000D+00  0.000000D+00 -0.101509D-01
     15  0.700906D-02  0.000000D+00 -0.813590D-02 -0.429137D-02  0.000000D+00
                6             7             8             9            10 
      6  0.522690D+00
      7 -0.835635D-01  0.272619D+00
      8  0.000000D+00  0.000000D+00  0.428226D-01
      9 -0.952141D-01  0.757553D-01  0.000000D+00  0.312941D+00
     10  0.394309D-01 -0.142669D+00  0.000000D+00 -0.357530D-01  0.548050D+00
     11  0.000000D+00  0.000000D+00 -0.469847D-01  0.000000D+00  0.000000D+00
     12 -0.897484D-02  0.118952D-01  0.000000D+00 -0.248361D-01  0.245196D+00
     13  0.288688D-01  0.374721D-01  0.000000D+00 -0.111568D-01 -0.319495D+00
     14  0.000000D+00  0.000000D+00  0.295392D-01  0.000000D+00  0.000000D+00
     15  0.518673D-02  0.967058D-02  0.000000D+00 -0.174506D+00 -0.254581D+00
               11            12            13            14            15 
     11  0.579143D-01
     12  0.000000D+00  0.447488D+00
     13  0.000000D+00 -0.251034D+00  0.247827D+00
     14 -0.375040D-01  0.000000D+00  0.000000D+00  0.252837D-01
     15  0.000000D+00 -0.424903D+00  0.242192D+00  0.000000D+00  0.602358D+00
 Force constants in internal coordinates: 
                1             2             3             4             5 
      1  0.438983D+00
      2  0.194537D-01  0.227220D+00
      3  0.432740D-02  0.187235D-01  0.203549D+00
      4 -0.115943D-01  0.215117D-01  0.148253D+00  0.720679D+00
      5  0.422629D-01  0.507469D-01 -0.227634D-01  0.208583D-01  0.239736D+00
      6  0.968106D-02  0.201229D-01  0.892703D-01  0.946833D-02 -0.116537D-01
      7  0.729944D-02 -0.689636D-01  0.121891D+00  0.116325D+00 -0.199074D-01
      8  0.000000D+00  0.000000D+00  0.000000D+00  0.000000D+00  0.000000D+00
      9  0.000000D+00  0.000000D+00  0.000000D+00  0.000000D+00  0.000000D+00
                6             7             8             9 
      6  0.505751D+00
      7  0.611735D-01  0.658881D+00
      8  0.000000D+00  0.000000D+00  0.192849D-01
      9  0.000000D+00  0.000000D+00  0.269873D-01  0.104904D+00
 Leave Link  716 at Sun Mar  6 18:59:52 2022, MaxMem= 16106127360 cpu:               0.8 elap:               0.1
 (Enter /sw/contrib/gaussian/g16/B01/g16/l103.exe)

 GradGradGradGradGradGradGradGradGradGradGradGradGradGradGradGradGradGrad
 Berny optimization.
 Search for a local minimum.
 Step number   1 out of a maximum of    2
 All quantities printed in internal units (Hartrees-Bohrs-Radians)
 Second derivative matrix not updated -- analytic derivatives used.
 The second derivative matrix:
                          r1        r2        r3        r4        a1
           r1           0.43898
           r2           0.01945   0.22722
           r3           0.00433   0.01872   0.20355
           r4          -0.01159   0.02151   0.14825   0.72068
           a1           0.04226   0.05075  -0.02276   0.02086   0.23974
           a2           0.00968   0.02012   0.08927   0.00947  -0.01165
           a3           0.00730  -0.06896   0.12189   0.11632  -0.01991
           d1           0.00000   0.00000   0.00000   0.00000   0.00000
           d2           0.00000   0.00000   0.00000   0.00000   0.00000
                          a2        a3        d1        d2
           a2           0.50575
           a3           0.06117   0.65888
           d1           0.00000   0.00000   0.01928
           d2           0.00000   0.00000   0.02699   0.10490
 ITU=  0
     Eigenvalues ---    0.01149   0.11270   0.11905   0.18916   0.25786
     Eigenvalues ---    0.44893   0.49898   0.60168   0.87913
 Angle between quadratic step and forces=  21.44 degrees.
 Linear search not attempted -- first point.
 Variable       Old X    -DE/DX   Delta X   Delta X   Delta X     New X
                                 (Linear)    (Quad)   (Total)
    r1        1.86209  -0.00080   0.00000   0.00010   0.00010   1.86219
    r2        2.73594  -0.00953   0.00000  -0.04195  -0.04195   2.69399
    r3        2.60992  -0.00095   0.00000  -0.00170  -0.00170   2.60822
    r4        2.25782  -0.00058   0.00000   0.00083   0.00083   2.25866
    a1        1.75642  -0.00218   0.00000  -0.00043  -0.00043   1.75599
    a2        1.97463  -0.00058   0.00000   0.00082   0.00082   1.97544
    a3        1.99550   0.00269   0.00000  -0.00023  -0.00023   1.99528
    d1        0.00000   0.00000   0.00000   0.00000   0.00000   0.00000
    d2        0.00000   0.00000   0.00000   0.00000   0.00000   0.00000
         Item               Value     Threshold  Converged?
 Maximum Force            0.009534     0.000450     NO 
 RMS     Force            0.003418     0.000300     NO 
 Maximum Displacement     0.041952     0.001800     NO 
 RMS     Displacement     0.014002     0.001200     NO 
 Predicted change in Energy=-2.004483D-04
                       ----------------------------
                       ! Non-Optimized Parameters !
                       ! (Angstroms and Degrees)  !
 ----------------------                            ----------------------
 !      Name          Value   Derivative information (Atomic Units)     !
 ------------------------------------------------------------------------
 !       r1          0.9854   -DE/DX =   -0.0008                        !
 !       r2          1.4256   -DE/DX =   -0.0095                        !
 !       r3          1.3802   -DE/DX =   -0.001                         !
 !       r4          1.1952   -DE/DX =   -0.0006                        !
 !       a1        100.6106   -DE/DX =   -0.0022                        !
 !       a2        113.1846   -DE/DX =   -0.0006                        !
 !       a3        114.3209   -DE/DX =    0.0027                        !
 !       d1          0.0      -DE/DX =    0.0                           !
 !       d2          0.0      -DE/DX =    0.0                           !
 ------------------------------------------------------------------------
 GradGradGradGradGradGradGradGradGradGradGradGradGradGradGradGradGradGrad

 Leave Link  103 at Sun Mar  6 18:59:52 2022, MaxMem= 16106127360 cpu:               2.7 elap:               0.1
 (Enter /sw/contrib/gaussian/g16/B01/g16/l9999.exe)

 ----------------------------------------------------------------------

 Electric dipole moment (input orientation):
 (Debye = 10**-18 statcoulomb cm , SI units = C m)
                  (au)            (Debye)         (10**-30 SI)
   Tot        0.440865D+00      0.112057D+01      0.373781D+01
   x         -0.100904D+00     -0.256472D+00     -0.855498D+00
   y          0.000000D+00      0.000000D+00      0.000000D+00
   z         -0.429162D+00     -0.109082D+01     -0.363859D+01

 Dipole polarizability, Alpha (input orientation).
 (esu units = cm**3 , SI units = C**2 m**2 J**-1)
 Alpha(0;0):
               (au)            (10**-24 esu)      (10**-40 SI)
   iso        0.262750D+02      0.389355D+01      0.433216D+01
   aniso      0.147157D+02      0.218064D+01      0.242629D+01
   xx         0.295289D+02      0.437574D+01      0.486866D+01
   yx         0.000000D+00      0.000000D+00      0.000000D+00
   yy         0.176792D+02      0.261979D+01      0.291491D+01
   zx        -0.395959D+01     -0.586751D+00     -0.652849D+00
   zy         0.000000D+00      0.000000D+00      0.000000D+00
   zz         0.316168D+02      0.468513D+01      0.521291D+01

 ----------------------------------------------------------------------

 Dipole orientation:
     1          0.00000000         -0.00000000         -0.00000000
     8         -0.42618971         -0.00000000         -1.81266347
     8          2.07580521         -0.00000000         -2.91964327
     7          3.98470780         -0.00000000         -1.13982637
     8          3.26224464          0.00000000          0.99928829

 Electric dipole moment (dipole orientation):
 (Debye = 10**-18 statcoulomb cm , SI units = C m)
                  (au)            (Debye)         (10**-30 SI)
   Tot        0.440865D+00      0.112057D+01      0.373781D+01
   x          0.000000D+00      0.000000D+00      0.000000D+00
   y          0.000000D+00      0.000000D+00      0.000000D+00
   z          0.440865D+00      0.112057D+01      0.373781D+01

 Dipole polarizability, Alpha (dipole orientation).
 (esu units = cm**3 , SI units = C**2 m**2 J**-1)
 Alpha(0;0):
               (au)            (10**-24 esu)      (10**-40 SI)
   iso        0.262750D+02      0.389355D+01      0.433216D+01
   aniso      0.147157D+02      0.218064D+01      0.242629D+01
   xx         0.314027D+02      0.465340D+01      0.517761D+01
   yx         0.000000D+00      0.000000D+00      0.000000D+00
   yy         0.176792D+02      0.261979D+01      0.291491D+01
   zx         0.400993D+01      0.594211D+00      0.661149D+00
   zy         0.000000D+00      0.000000D+00      0.000000D+00
   zz         0.297430D+02      0.440746D+01      0.490397D+01

 ----------------------------------------------------------------------
 1\1\GINC-N2110\Freq\RMP2-FC\Aug-CC-pVTZ\H1N1O3\CGAVINH\06-Mar-2022\1\\
 #p freq mp2/aug-cc-pvtz density=current\\title\\0,1\H\O,1,r1\O,2,r2,1,
 a1\N,3,r3,2,a2,1,d1,0\O,4,r4,3,a3,2,d2,0\\r1=0.98537664\r2=1.44779857\
 r3=1.38110764\r4=1.19478846\a1=100.6355057\a2=113.13777052\a3=114.3339
 2022\d1=0.\d2=0.\\Version=ES64L-G16RevB.01\State=1-A'\HF=-279.5049273\
 MP2=-280.4550488\RMSD=4.829e-09\RMSF=3.110e-03\ZeroPoint=0.0232271\The
 rmal=0.0271876\Dipole=-0.1009038,0.,-0.4291623\DipoleDeriv=0.3166958,0
 .,0.0371047,0.,0.299009,0.,-0.0177744,0.,0.197203,-0.5326201,0.,0.2618
 6,0.,-0.2574473,0.,-0.1060918,0.,-0.1322601,0.0053017,0.,0.3564712,0.,
 -0.0124206,0.,0.4312261,0.,-0.909045,0.1991965,0.,-0.1443476,0.,0.0154
 007,0.,-0.6573508,0.,1.7081319,0.0114261,0.,-0.5110883,0.,-0.0445418,0
 .,0.3499909,0.,-0.8640299\Polar=29.5289419,0.,17.6792334,-3.9595931,0.
 ,31.6168228\Quadrupole=0.1794612,0.5857022,-0.7651634,0.,1.4367809,0.\
 PG=CS [SG(H1N1O3)]\NImag=0\\0.06957125,0.,0.00607051,0.02206846,0.,0.4
 3898287,-0.05189390,0.,-0.00514683,0.25333023,0.,-0.00214348,0.,0.,0.0
 1433816,0.03145837,0.,-0.42368823,-0.01619452,0.,0.52269045,-0.0230614
 9,0.,-0.01375746,-0.14436067,0.,-0.08356353,0.27261871,0.,-0.00450582,
 0.,0.,-0.02087133,0.,0.,0.04282262,-0.04242104,0.,-0.01838448,0.013575
 59,0.,-0.09521411,0.07575525,0.,0.31294074,-0.00455408,0.,0.00570634,-
 0.08133255,0.,0.03943087,-0.14266865,0.,-0.03575297,0.54804995,0.,0.00
 774673,0.,0.,0.01882759,0.,0.,-0.04698469,0.,0.,0.05791432,-0.01811485
 ,0.,0.01122574,0.01205713,0.,-0.00897484,0.01189516,0.,-0.02483610,0.2
 4519649,0.,0.44748776,0.00993822,0.,-0.00887052,0.02425689,0.,0.028868
 81,0.03747210,0.,-0.01115685,-0.31949468,0.,-0.25103392,0.24782747,0.,
 -0.00716796,0.,0.,-0.01015095,0.,0.,0.02953921,0.,0.,-0.03750396,0.,0.
 ,0.02528365,0.00700906,0.,-0.00813590,-0.00429137,0.,0.00518673,0.0096
 7058,0.,-0.17450605,-0.25458074,0.,-0.42490257,0.24219247,0.,0.6023577
 8\\-0.00116949,0.,-0.00080166,-0.00809339,0.,-0.00153106,0.00769036,0.
 ,0.00242619,0.00289273,0.,-0.00022971,-0.00132021,0.,0.00013624\\\@


 LAW OF COMPENSATION:
      NO CALCULATION IS EVER A COMPLETE FAILURE; IT 
      CAN ALWAYS SERVE AS A BAD EXAMPLE.

                                           -- ANON
 Job cpu time:       0 days  1 hours 58 minutes 41.1 seconds.
 Elapsed time:       0 days  0 hours  4 minutes 17.5 seconds.
 File lengths (MBytes):  RWF=   7239 Int=      0 D2E=      0 Chk=      8 Scr=      1
 Normal termination of Gaussian 16 at Sun Mar  6 18:59:53 2022.
