 Entering Gaussian System, Link 0=g16
 Input=hoono_r1_0p960332.gjf
 Output=hoono_r1_0p960332.log
 Initial command:
 /sw/contrib/gaussian/g16/B01/g16/l1.exe "/scr/Gau-11961.inp" -scrdir="/scr/"
 Entering Link 1 = /sw/contrib/gaussian/g16/B01/g16/l1.exe PID=     11962.
  
 Copyright (c) 1988-2017, Gaussian, Inc.  All Rights Reserved.
  
 This is part of the Gaussian(R) 16 program.  It is based on
 the Gaussian(R) 09 system (copyright 2009, Gaussian, Inc.),
 the Gaussian(R) 03 system (copyright 2003, Gaussian, Inc.),
 the Gaussian(R) 98 system (copyright 1998, Gaussian, Inc.),
 the Gaussian(R) 94 system (copyright 1995, Gaussian, Inc.),
 the Gaussian 92(TM) system (copyright 1992, Gaussian, Inc.),
 the Gaussian 90(TM) system (copyright 1990, Gaussian, Inc.),
 the Gaussian 88(TM) system (copyright 1988, Gaussian, Inc.),
 the Gaussian 86(TM) system (copyright 1986, Carnegie Mellon
 University), and the Gaussian 82(TM) system (copyright 1983,
 Carnegie Mellon University). Gaussian is a federally registered
 trademark of Gaussian, Inc.
  
 This software contains proprietary and confidential information,
 including trade secrets, belonging to Gaussian, Inc.
  
 This software is provided under written license and may be
 used, copied, transmitted, or stored only in accord with that
 written license.
  
 The following legend is applicable only to US Government
 contracts under FAR:
  
                    RESTRICTED RIGHTS LEGEND
  
 Use, reproduction and disclosure by the US Government is
 subject to restrictions as set forth in subparagraphs (a)
 and (c) of the Commercial Computer Software - Restricted
 Rights clause in FAR 52.227-19.
  
 Gaussian, Inc.
 340 Quinnipiac St., Bldg. 40, Wallingford CT 06492
  
  
 ---------------------------------------------------------------
 Warning -- This program may not be used in any manner that
 competes with the business of Gaussian, Inc. or will provide
 assistance to any competitor of Gaussian, Inc.  The licensee
 of this program is prohibited from giving any competitor of
 Gaussian, Inc. access to this program.  By using this program,
 the user acknowledges that Gaussian, Inc. is engaged in the
 business of creating and licensing software in the field of
 computational chemistry and represents and warrants to the
 licensee that it is not a competitor of Gaussian, Inc. and that
 it will not use this program in any manner prohibited above.
 ---------------------------------------------------------------
  

 Cite this work as:
 Gaussian 16, Revision B.01,
 M. J. Frisch, G. W. Trucks, H. B. Schlegel, G. E. Scuseria, 
 M. A. Robb, J. R. Cheeseman, G. Scalmani, V. Barone, 
 G. A. Petersson, H. Nakatsuji, X. Li, M. Caricato, A. V. Marenich, 
 J. Bloino, B. G. Janesko, R. Gomperts, B. Mennucci, H. P. Hratchian, 
 J. V. Ortiz, A. F. Izmaylov, J. L. Sonnenberg, D. Williams-Young, 
 F. Ding, F. Lipparini, F. Egidi, J. Goings, B. Peng, A. Petrone, 
 T. Henderson, D. Ranasinghe, V. G. Zakrzewski, J. Gao, N. Rega, 
 G. Zheng, W. Liang, M. Hada, M. Ehara, K. Toyota, R. Fukuda, 
 J. Hasegawa, M. Ishida, T. Nakajima, Y. Honda, O. Kitao, H. Nakai, 
 T. Vreven, K. Throssell, J. A. Montgomery, Jr., J. E. Peralta, 
 F. Ogliaro, M. J. Bearpark, J. J. Heyd, E. N. Brothers, K. N. Kudin, 
 V. N. Staroverov, T. A. Keith, R. Kobayashi, J. Normand, 
 K. Raghavachari, A. P. Rendell, J. C. Burant, S. S. Iyengar, 
 J. Tomasi, M. Cossi, J. M. Millam, M. Klene, C. Adamo, R. Cammi, 
 J. W. Ochterski, R. L. Martin, K. Morokuma, O. Farkas, 
 J. B. Foresman, and D. J. Fox, Gaussian, Inc., Wallingford CT, 2016.
 
 ******************************************
 Gaussian 16:  ES64L-G16RevB.01 20-Dec-2017
                21-Feb-2022 
 ******************************************
 %nproc=28
 Will use up to   28 processors via shared memory.
 %mem=120GB
 %chk=hoono_r1_0p960332.chk
 ---------------------------------------
 #p freq mp2/aug-cc-pvtz density=current
 ---------------------------------------
 1/10=4,30=1,38=1/1,3;
 2/12=2,17=6,18=5,40=1/2;
 3/5=16,6=1,7=10,11=9,25=1,30=1,71=2,140=1/1,2,3;
 4//1;
 5/5=2,38=5,98=1/2;
 8/6=3,8=1,10=1,19=11,30=-1/1;
 9/15=3,16=-3/6;
 11/6=1,8=1,15=11,17=12,24=-1,27=1,28=-2,29=300,32=6,42=3/1,2,10;
 10/6=2,21=1/2;
 8/6=4,8=1,10=1,19=11,30=-1/11,4;
 10/5=1,20=4/2;
 11/12=2,14=11,16=1,17=2,28=-2,42=3,76=2/2,10,12;
 6/7=2,8=2,9=2,10=2,22=-1/1;
 7/8=1,10=1,12=2,25=1,44=2/1,2,3,16;
 1/10=4,30=1/3;
 99//99;
 Leave Link    1 at Mon Feb 21 20:01:53 2022, MaxMem= 16106127360 cpu:               2.9 elap:               0.1
 (Enter /sw/contrib/gaussian/g16/B01/g16/l101.exe)
 -----
 title
 -----
 Symbolic Z-matrix:
 Charge =  0 Multiplicity = 1
 H
 O                    1    r1
 O                    2    r2       1    a1
 N                    3    r3       2    a2       1    d1       0
 O                    4    r4       3    a3       2    d2       0
       Variables:
  r1                    0.96033                  
  r2                    1.45492                  
  r3                    1.45878                  
  r4                    1.17073                  
  a1                   97.59495                  
  a2                  102.29752                  
  a3                  109.06955                  
  d1                  180.                       
  d2                  180.                       
 
 ITRead=  0  0  0  0  0
 MicOpt= -1 -1 -1 -1 -1
 NAtoms=      5 NQM=        5 NQMF=       0 NMMI=      0 NMMIF=      0
                NMic=       0 NMicF=      0.
                    Isotopes and Nuclear Properties:
 (Nuclear quadrupole moments (NQMom) in fm**2, nuclear magnetic moments (NMagM)
  in nuclear magnetons)

  Atom         1           2           3           4           5
 IAtWgt=           1          16          16          14          16
 AtmWgt=   1.0078250  15.9949146  15.9949146  14.0030740  15.9949146
 NucSpn=           1           0           0           2           0
 AtZEff=  -0.0000000  -0.0000000  -0.0000000  -0.0000000  -0.0000000
 NQMom=    0.0000000   0.0000000   0.0000000   2.0440000   0.0000000
 NMagM=    2.7928460   0.0000000   0.0000000   0.4037610   0.0000000
 AtZNuc=   1.0000000   8.0000000   8.0000000   7.0000000   8.0000000
 Leave Link  101 at Mon Feb 21 20:01:53 2022, MaxMem= 16106127360 cpu:               2.5 elap:               0.1
 (Enter /sw/contrib/gaussian/g16/B01/g16/l103.exe)

 GradGradGradGradGradGradGradGradGradGradGradGradGradGradGradGradGradGrad
 Berny optimization.
 Initialization pass.
                       ----------------------------
                       !    Initial Parameters    !
                       ! (Angstroms and Degrees)  !
 ----------------------                            ----------------------
 !      Name          Value   Derivative information (Atomic Units)     !
 ------------------------------------------------------------------------
 !       r1          0.9603   calculate D2E/DX2 analytically            !
 !       r2          1.4549   calculate D2E/DX2 analytically            !
 !       r3          1.4588   calculate D2E/DX2 analytically            !
 !       r4          1.1707   calculate D2E/DX2 analytically            !
 !       a1         97.5949   calculate D2E/DX2 analytically            !
 !       a2        102.2975   calculate D2E/DX2 analytically            !
 !       a3        109.0696   calculate D2E/DX2 analytically            !
 !       d1        180.0      calculate D2E/DX2 analytically            !
 !       d2        180.0      calculate D2E/DX2 analytically            !
 ------------------------------------------------------------------------
 Trust Radius=3.00D-01 FncErr=1.00D-07 GrdErr=1.00D-07 EigMax=2.50D+02 EigMin=1.00D-04
 Number of steps in this run=      2 maximum allowed number of steps=      2.
 GradGradGradGradGradGradGradGradGradGradGradGradGradGradGradGradGradGrad

 Leave Link  103 at Mon Feb 21 20:01:53 2022, MaxMem= 16106127360 cpu:               1.3 elap:               0.1
 (Enter /sw/contrib/gaussian/g16/B01/g16/l202.exe)
                          Input orientation:                          
 ---------------------------------------------------------------------
 Center     Atomic      Atomic             Coordinates (Angstroms)
 Number     Number       Type             X           Y           Z
 ---------------------------------------------------------------------
      1          1           0        0.000000    0.000000    0.000000
      2          8           0        0.000000    0.000000    0.960332
      3          8           0        1.442156    0.000000    1.152627
      4          7           0        1.561752    0.000000    2.606501
      5          8           0        2.695867    0.000000    2.896996
 ---------------------------------------------------------------------
                    Distance matrix (angstroms):
                    1          2          3          4          5
     1  H    0.000000
     2  O    0.960332   0.000000
     3  O    1.846175   1.454919   0.000000
     4  N    3.038571   2.269127   1.458784   0.000000
     5  O    3.957308   3.319392   2.148165   1.170729   0.000000
 Stoichiometry    HNO3
 Framework group  CS[SG(HNO3)]
 Deg. of freedom     7
 Full point group                 CS      NOp   2
 Largest Abelian subgroup         CS      NOp   2
 Largest concise Abelian subgroup C1      NOp   1
                         Standard orientation:                         
 ---------------------------------------------------------------------
 Center     Atomic      Atomic             Coordinates (Angstroms)
 Number     Number       Type             X           Y           Z
 ---------------------------------------------------------------------
      1          1           0        1.548224    1.678944    0.000000
      2          8           0        1.454061    0.723239    0.000000
      3          8           0       -0.000000    0.673278    0.000000
      4          7           0       -0.261576   -0.761863    0.000000
      5          8           0       -1.418710   -0.939755    0.000000
 ---------------------------------------------------------------------
 Rotational constants (GHZ):          54.9911481           5.0124359           4.5937190
 Leave Link  202 at Mon Feb 21 20:01:53 2022, MaxMem= 16106127360 cpu:               0.3 elap:               0.0
 (Enter /sw/contrib/gaussian/g16/B01/g16/l301.exe)
 Standard basis: Aug-CC-pVTZ (5D, 7F)
 Ernie: Thresh=  0.10000D-02 Tol=  0.10000D-05 Strict=F.
 Ernie:  12 primitive shells out of 131 were deleted.
 There are   166 symmetry adapted cartesian basis functions of A'  symmetry.
 There are    79 symmetry adapted cartesian basis functions of A"  symmetry.
 There are   136 symmetry adapted basis functions of A'  symmetry.
 There are    71 symmetry adapted basis functions of A"  symmetry.
   207 basis functions,   315 primitive gaussians,   245 cartesian basis functions
    16 alpha electrons       16 beta electrons
       nuclear repulsion energy       116.9227096012 Hartrees.
 IExCor=    0 DFT=F Ex=HF Corr=None ExCW=0 ScaHFX=  1.000000
 ScaDFX=  1.000000  1.000000  1.000000  1.000000 ScalE2=  1.000000  1.000000
 IRadAn=      5 IRanWt=     -1 IRanGd=            0 ICorTp=0 IEmpDi=  4
 NAtoms=    5 NActive=    5 NUniq=    5 SFac= 1.00D+00 NAtFMM=   60 NAOKFM=F Big=F
 Integral buffers will be    131072 words long.
 Raffenetti 1 integral format.
 Two-electron integral symmetry is turned on.
 Leave Link  301 at Mon Feb 21 20:01:53 2022, MaxMem= 16106127360 cpu:               1.7 elap:               0.1
 (Enter /sw/contrib/gaussian/g16/B01/g16/l302.exe)
 NPDir=0 NMtPBC=     1 NCelOv=     1 NCel=       1 NClECP=     1 NCelD=      1
         NCelK=      1 NCelE2=     1 NClLst=     1 CellRange=     0.0.
 One-electron integrals computed using PRISM.
 One-electron integral symmetry used in STVInt
 NBasis=   207 RedAO= T EigKep=  1.81D-04  NBF=   136    71
 NBsUse=   207 1.00D-06 EigRej= -1.00D+00 NBFU=   136    71
 Leave Link  302 at Mon Feb 21 20:01:53 2022, MaxMem= 16106127360 cpu:               5.6 elap:               0.2
 (Enter /sw/contrib/gaussian/g16/B01/g16/l303.exe)
 DipDrv:  MaxL=1.
 Leave Link  303 at Mon Feb 21 20:01:54 2022, MaxMem= 16106127360 cpu:               1.5 elap:               0.1
 (Enter /sw/contrib/gaussian/g16/B01/g16/l401.exe)
 ExpMin= 2.53D-02 ExpMax= 1.53D+04 ExpMxC= 5.22D+02 IAcc=3 IRadAn=         5 AccDes= 0.00D+00
 Harris functional with IExCor=  205 and IRadAn=       5 diagonalized for initial guess.
 HarFok:  IExCor=  205 AccDes= 0.00D+00 IRadAn=         5 IDoV= 1 UseB2=F ITyADJ=14
 ICtDFT=  3500011 ScaDFX=  1.000000  1.000000  1.000000  1.000000
 FoFCou: FMM=F IPFlag=           0 FMFlag=      100000 FMFlg1=           0
         NFxFlg=           0 DoJE=T BraDBF=F KetDBF=T FulRan=T
         wScrn=  0.000000 ICntrl=       500 IOpCl=  0 I1Cent=   200000004 NGrid=           0
         NMat0=    1 NMatS0=      1 NMatT0=    0 NMatD0=    1 NMtDS0=    0 NMtDT0=    0
 Petite list used in FoFCou.
 Harris En= -279.628746902492    
 JPrj=0 DoOrth=F DoCkMO=F.
 Initial guess orbital symmetries:
       Occupied  (A') (A') (A') (A') (A') (A') (A') (A') (A') (A')
                 (A") (A') (A') (A") (A") (A')
       Virtual   (A") (A') (A') (A') (A') (A') (A") (A') (A') (A')
                 (A") (A') (A") (A') (A') (A") (A') (A") (A') (A')
                 (A') (A') (A') (A') (A') (A") (A') (A") (A') (A')
                 (A") (A') (A") (A') (A') (A") (A') (A") (A') (A')
                 (A") (A') (A") (A') (A") (A') (A') (A') (A") (A")
                 (A') (A') (A') (A') (A") (A') (A") (A') (A") (A')
                 (A') (A') (A") (A') (A') (A") (A') (A") (A') (A')
                 (A") (A') (A') (A") (A") (A') (A') (A") (A') (A')
                 (A') (A") (A') (A") (A') (A") (A') (A") (A') (A')
                 (A') (A") (A') (A") (A') (A") (A") (A') (A') (A")
                 (A') (A') (A") (A') (A') (A') (A') (A") (A") (A')
                 (A") (A') (A') (A') (A") (A') (A') (A') (A") (A')
                 (A") (A') (A') (A") (A") (A') (A") (A') (A") (A')
                 (A') (A') (A') (A") (A") (A') (A") (A') (A') (A')
                 (A') (A") (A") (A') (A') (A") (A') (A') (A') (A')
                 (A") (A') (A') (A") (A') (A") (A') (A") (A') (A")
                 (A') (A") (A') (A") (A') (A") (A") (A") (A') (A')
                 (A") (A') (A") (A') (A") (A') (A") (A") (A') (A')
                 (A') (A') (A') (A') (A') (A') (A') (A') (A') (A')
                 (A')
 The electronic state of the initial guess is 1-A'.
 Leave Link  401 at Mon Feb 21 20:01:54 2022, MaxMem= 16106127360 cpu:               7.2 elap:               0.3
 (Enter /sw/contrib/gaussian/g16/B01/g16/l502.exe)
 Keep R1 ints in memory in symmetry-blocked form, NReq=348887737.
 FoFCou: FMM=F IPFlag=           0 FMFlag=           0 FMFlg1=           0
         NFxFlg=           0 DoJE=F BraDBF=F KetDBF=F FulRan=T
         wScrn=  0.000000 ICntrl=       600 IOpCl=  0 I1Cent=           0 NGrid=           0
         NMat0=    1 NMatS0=  21528 NMatT0=    0 NMatD0=    1 NMtDS0=    0 NMtDT0=    0
 Petite list used in FoFCou.
 Closed shell SCF:
 Using DIIS extrapolation, IDIIS=  1040.
 NGot= 16106127360 LenX= 15988850015 LenY= 15988789549
 Requested convergence on RMS density matrix=1.00D-08 within 128 cycles.
 Requested convergence on MAX density matrix=1.00D-06.
 Requested convergence on             energy=1.00D-06.
 No special actions if energy rises.

 Cycle   1  Pass 1  IDiag  1:
 E= -279.370250484806    
 DIIS: error= 2.60D-02 at cycle   1 NSaved=   1.
 NSaved= 1 IEnMin= 1 EnMin= -279.370250484806     IErMin= 1 ErrMin= 2.60D-02
 ErrMax= 2.60D-02  0.00D+00 EMaxC= 1.00D-01 BMatC= 4.39D-01 BMatP= 4.39D-01
 IDIUse=3 WtCom= 7.40D-01 WtEn= 2.60D-01
 Coeff-Com:  0.100D+01
 Coeff-En:   0.100D+01
 Coeff:      0.100D+01
 Gap=     0.513 Goal=   None    Shift=    0.000
 GapD=    0.513 DampG=2.000 DampE=0.500 DampFc=1.0000 IDamp=-1.
 RMSDP=1.63D-03 MaxDP=9.91D-02              OVMax= 1.14D-01

 Cycle   2  Pass 1  IDiag  1:
 E= -279.452328422520     Delta-E=       -0.082077937714 Rises=F Damp=F
 DIIS: error= 1.81D-02 at cycle   2 NSaved=   2.
 NSaved= 2 IEnMin= 2 EnMin= -279.452328422520     IErMin= 2 ErrMin= 1.81D-02
 ErrMax= 1.81D-02  0.00D+00 EMaxC= 1.00D-01 BMatC= 7.25D-02 BMatP= 4.39D-01
 IDIUse=3 WtCom= 8.19D-01 WtEn= 1.81D-01
 Coeff-Com:  0.196D+00 0.804D+00
 Coeff-En:   0.000D+00 0.100D+01
 Coeff:      0.161D+00 0.839D+00
 Gap=     0.530 Goal=   None    Shift=    0.000
 RMSDP=9.04D-04 MaxDP=3.73D-02 DE=-8.21D-02 OVMax= 6.93D-02

 Cycle   3  Pass 1  IDiag  1:
 E= -279.481778959360     Delta-E=       -0.029450536840 Rises=F Damp=F
 DIIS: error= 1.04D-02 at cycle   3 NSaved=   3.
 NSaved= 3 IEnMin= 3 EnMin= -279.481778959360     IErMin= 3 ErrMin= 1.04D-02
 ErrMax= 1.04D-02  0.00D+00 EMaxC= 1.00D-01 BMatC= 2.89D-02 BMatP= 7.25D-02
 IDIUse=3 WtCom= 8.96D-01 WtEn= 1.04D-01
 Coeff-Com: -0.329D-01 0.378D+00 0.655D+00
 Coeff-En:   0.000D+00 0.240D+00 0.760D+00
 Coeff:     -0.295D-01 0.363D+00 0.666D+00
 Gap=     0.511 Goal=   None    Shift=    0.000
 RMSDP=3.78D-04 MaxDP=1.54D-02 DE=-2.95D-02 OVMax= 3.83D-02

 Cycle   4  Pass 1  IDiag  1:
 E= -279.500951396885     Delta-E=       -0.019172437525 Rises=F Damp=F
 DIIS: error= 1.32D-03 at cycle   4 NSaved=   4.
 NSaved= 4 IEnMin= 4 EnMin= -279.500951396885     IErMin= 4 ErrMin= 1.32D-03
 ErrMax= 1.32D-03  0.00D+00 EMaxC= 1.00D-01 BMatC= 5.00D-04 BMatP= 2.89D-02
 IDIUse=3 WtCom= 9.87D-01 WtEn= 1.32D-02
 Coeff-Com: -0.118D-01 0.582D-01 0.160D+00 0.793D+00
 Coeff-En:   0.000D+00 0.000D+00 0.000D+00 0.100D+01
 Coeff:     -0.116D-01 0.574D-01 0.158D+00 0.796D+00
 Gap=     0.503 Goal=   None    Shift=    0.000
 RMSDP=9.03D-05 MaxDP=2.78D-03 DE=-1.92D-02 OVMax= 1.12D-02

 Cycle   5  Pass 1  IDiag  1:
 E= -279.501630850167     Delta-E=       -0.000679453282 Rises=F Damp=F
 DIIS: error= 7.35D-04 at cycle   5 NSaved=   5.
 NSaved= 5 IEnMin= 5 EnMin= -279.501630850167     IErMin= 5 ErrMin= 7.35D-04
 ErrMax= 7.35D-04  0.00D+00 EMaxC= 1.00D-01 BMatC= 8.70D-05 BMatP= 5.00D-04
 IDIUse=3 WtCom= 9.93D-01 WtEn= 7.35D-03
 Coeff-Com:  0.613D-02-0.721D-01-0.118D+00 0.158D-01 0.117D+01
 Coeff-En:   0.000D+00 0.000D+00 0.000D+00 0.000D+00 0.100D+01
 Coeff:      0.609D-02-0.716D-01-0.117D+00 0.157D-01 0.117D+01
 Gap=     0.502 Goal=   None    Shift=    0.000
 RMSDP=7.65D-05 MaxDP=2.11D-03 DE=-6.79D-04 OVMax= 1.11D-02

 Cycle   6  Pass 1  IDiag  1:
 E= -279.501947047737     Delta-E=       -0.000316197570 Rises=F Damp=F
 DIIS: error= 2.87D-04 at cycle   6 NSaved=   6.
 NSaved= 6 IEnMin= 6 EnMin= -279.501947047737     IErMin= 6 ErrMin= 2.87D-04
 ErrMax= 2.87D-04  0.00D+00 EMaxC= 1.00D-01 BMatC= 1.67D-05 BMatP= 8.70D-05
 IDIUse=3 WtCom= 9.97D-01 WtEn= 2.87D-03
 Coeff-Com:  0.575D-03 0.184D-02 0.492D-02-0.128D+00-0.238D+00 0.136D+01
 Coeff-En:   0.000D+00 0.000D+00 0.000D+00 0.000D+00 0.000D+00 0.100D+01
 Coeff:      0.573D-03 0.184D-02 0.490D-02-0.128D+00-0.237D+00 0.136D+01
 Gap=     0.503 Goal=   None    Shift=    0.000
 RMSDP=4.54D-05 MaxDP=1.25D-03 DE=-3.16D-04 OVMax= 5.55D-03

 Cycle   7  Pass 1  IDiag  1:
 E= -279.502019843911     Delta-E=       -0.000072796175 Rises=F Damp=F
 DIIS: error= 1.21D-04 at cycle   7 NSaved=   7.
 NSaved= 7 IEnMin= 7 EnMin= -279.502019843911     IErMin= 7 ErrMin= 1.21D-04
 ErrMax= 1.21D-04  0.00D+00 EMaxC= 1.00D-01 BMatC= 4.46D-06 BMatP= 1.67D-05
 IDIUse=3 WtCom= 9.99D-01 WtEn= 1.21D-03
 Coeff-Com: -0.942D-03 0.135D-01 0.265D-01-0.227D-01-0.288D+00 0.388D+00
 Coeff-Com:  0.884D+00
 Coeff-En:   0.000D+00 0.000D+00 0.000D+00 0.000D+00 0.000D+00 0.000D+00
 Coeff-En:   0.100D+01
 Coeff:     -0.941D-03 0.135D-01 0.265D-01-0.227D-01-0.287D+00 0.387D+00
 Coeff:      0.884D+00
 Gap=     0.503 Goal=   None    Shift=    0.000
 RMSDP=1.32D-05 MaxDP=3.79D-04 DE=-7.28D-05 OVMax= 1.54D-03

 Cycle   8  Pass 1  IDiag  1:
 E= -279.502028669411     Delta-E=       -0.000008825500 Rises=F Damp=F
 DIIS: error= 5.79D-05 at cycle   8 NSaved=   8.
 NSaved= 8 IEnMin= 8 EnMin= -279.502028669411     IErMin= 8 ErrMin= 5.79D-05
 ErrMax= 5.79D-05  0.00D+00 EMaxC= 1.00D-01 BMatC= 6.03D-07 BMatP= 4.46D-06
 IDIUse=1 WtCom= 1.00D+00 WtEn= 0.00D+00
 Coeff-Com: -0.447D-03 0.342D-02 0.756D-02 0.272D-01-0.402D-01-0.198D+00
 Coeff-Com:  0.175D+00 0.102D+01
 Coeff:     -0.447D-03 0.342D-02 0.756D-02 0.272D-01-0.402D-01-0.198D+00
 Coeff:      0.175D+00 0.102D+01
 Gap=     0.503 Goal=   None    Shift=    0.000
 RMSDP=6.86D-06 MaxDP=2.02D-04 DE=-8.83D-06 OVMax= 7.43D-04

 Cycle   9  Pass 1  IDiag  1:
 E= -279.502030428833     Delta-E=       -0.000001759422 Rises=F Damp=F
 DIIS: error= 1.59D-05 at cycle   9 NSaved=   9.
 NSaved= 9 IEnMin= 9 EnMin= -279.502030428833     IErMin= 9 ErrMin= 1.59D-05
 ErrMax= 1.59D-05  0.00D+00 EMaxC= 1.00D-01 BMatC= 6.94D-08 BMatP= 6.03D-07
 IDIUse=1 WtCom= 1.00D+00 WtEn= 0.00D+00
 Coeff-Com:  0.124D-03-0.172D-02-0.309D-02-0.215D-02 0.344D-01 0.871D-04
 Coeff-Com: -0.169D+00-0.101D+00 0.124D+01
 Coeff:      0.124D-03-0.172D-02-0.309D-02-0.215D-02 0.344D-01 0.871D-04
 Coeff:     -0.169D+00-0.101D+00 0.124D+01
 Gap=     0.503 Goal=   None    Shift=    0.000
 RMSDP=1.94D-06 MaxDP=6.65D-05 DE=-1.76D-06 OVMax= 1.75D-04

 Cycle  10  Pass 1  IDiag  1:
 E= -279.502030588670     Delta-E=       -0.000000159837 Rises=F Damp=F
 DIIS: error= 4.12D-06 at cycle  10 NSaved=  10.
 NSaved=10 IEnMin=10 EnMin= -279.502030588670     IErMin=10 ErrMin= 4.12D-06
 ErrMax= 4.12D-06  0.00D+00 EMaxC= 1.00D-01 BMatC= 5.50D-09 BMatP= 6.94D-08
 IDIUse=1 WtCom= 1.00D+00 WtEn= 0.00D+00
 Coeff-Com:  0.303D-04-0.235D-03-0.311D-03-0.266D-02 0.145D-02 0.196D-01
 Coeff-Com: -0.128D-01-0.731D-01-0.835D-01 0.115D+01
 Coeff:      0.303D-04-0.235D-03-0.311D-03-0.266D-02 0.145D-02 0.196D-01
 Coeff:     -0.128D-01-0.731D-01-0.835D-01 0.115D+01
 Gap=     0.503 Goal=   None    Shift=    0.000
 RMSDP=5.03D-07 MaxDP=2.10D-05 DE=-1.60D-07 OVMax= 4.17D-05

 Cycle  11  Pass 1  IDiag  1:
 E= -279.502030601131     Delta-E=       -0.000000012461 Rises=F Damp=F
 DIIS: error= 2.03D-06 at cycle  11 NSaved=  11.
 NSaved=11 IEnMin=11 EnMin= -279.502030601131     IErMin=11 ErrMin= 2.03D-06
 ErrMax= 2.03D-06  0.00D+00 EMaxC= 1.00D-01 BMatC= 6.57D-10 BMatP= 5.50D-09
 IDIUse=1 WtCom= 1.00D+00 WtEn= 0.00D+00
 Coeff-Com: -0.212D-04 0.243D-03 0.486D-03 0.533D-03-0.427D-02-0.354D-02
 Coeff-Com:  0.212D-01 0.306D-01-0.139D+00-0.177D+00 0.127D+01
 Coeff:     -0.212D-04 0.243D-03 0.486D-03 0.533D-03-0.427D-02-0.354D-02
 Coeff:      0.212D-01 0.306D-01-0.139D+00-0.177D+00 0.127D+01
 Gap=     0.503 Goal=   None    Shift=    0.000
 RMSDP=1.77D-07 MaxDP=6.51D-06 DE=-1.25D-08 OVMax= 1.73D-05

 Cycle  12  Pass 1  IDiag  1:
 E= -279.502030602930     Delta-E=       -0.000000001799 Rises=F Damp=F
 DIIS: error= 5.86D-07 at cycle  12 NSaved=  12.
 NSaved=12 IEnMin=12 EnMin= -279.502030602930     IErMin=12 ErrMin= 5.86D-07
 ErrMax= 5.86D-07  0.00D+00 EMaxC= 1.00D-01 BMatC= 7.16D-11 BMatP= 6.57D-10
 IDIUse=1 WtCom= 1.00D+00 WtEn= 0.00D+00
 Coeff-Com:  0.126D-05-0.292D-04-0.635D-04 0.178D-03 0.110D-02-0.231D-02
 Coeff-Com: -0.413D-02 0.552D-02 0.418D-01-0.115D+00-0.278D+00 0.135D+01
 Coeff:      0.126D-05-0.292D-04-0.635D-04 0.178D-03 0.110D-02-0.231D-02
 Coeff:     -0.413D-02 0.552D-02 0.418D-01-0.115D+00-0.278D+00 0.135D+01
 Gap=     0.503 Goal=   None    Shift=    0.000
 RMSDP=7.18D-08 MaxDP=2.83D-06 DE=-1.80D-09 OVMax= 6.68D-06

 Cycle  13  Pass 1  IDiag  1:
 E= -279.502030603160     Delta-E=       -0.000000000230 Rises=F Damp=F
 DIIS: error= 1.69D-07 at cycle  13 NSaved=  13.
 NSaved=13 IEnMin=13 EnMin= -279.502030603160     IErMin=13 ErrMin= 1.69D-07
 ErrMax= 1.69D-07  0.00D+00 EMaxC= 1.00D-01 BMatC= 4.01D-12 BMatP= 7.16D-11
 IDIUse=1 WtCom= 1.00D+00 WtEn= 0.00D+00
 Coeff-Com:  0.127D-05-0.139D-04-0.224D-04-0.885D-04 0.119D-03 0.762D-03
 Coeff-Com: -0.857D-03-0.324D-02 0.542D-03 0.414D-01-0.364D-01-0.325D+00
 Coeff-Com:  0.132D+01
 Coeff:      0.127D-05-0.139D-04-0.224D-04-0.885D-04 0.119D-03 0.762D-03
 Coeff:     -0.857D-03-0.324D-02 0.542D-03 0.414D-01-0.364D-01-0.325D+00
 Coeff:      0.132D+01
 Gap=     0.503 Goal=   None    Shift=    0.000
 RMSDP=1.92D-08 MaxDP=5.60D-07 DE=-2.30D-10 OVMax= 1.56D-06

 Cycle  14  Pass 1  IDiag  1:
 E= -279.502030603172     Delta-E=       -0.000000000013 Rises=F Damp=F
 DIIS: error= 2.44D-08 at cycle  14 NSaved=  14.
 NSaved=14 IEnMin=14 EnMin= -279.502030603172     IErMin=14 ErrMin= 2.44D-08
 ErrMax= 2.44D-08  0.00D+00 EMaxC= 1.00D-01 BMatC= 1.95D-13 BMatP= 4.01D-12
 IDIUse=1 WtCom= 1.00D+00 WtEn= 0.00D+00
 Coeff-Com: -0.189D-06 0.310D-05 0.556D-05 0.462D-05-0.824D-04 0.458D-04
 Coeff-Com:  0.283D-03 0.221D-03-0.244D-02 0.148D-02 0.170D-01-0.255D-01
 Coeff-Com: -0.200D+00 0.121D+01
 Coeff:     -0.189D-06 0.310D-05 0.556D-05 0.462D-05-0.824D-04 0.458D-04
 Coeff:      0.283D-03 0.221D-03-0.244D-02 0.148D-02 0.170D-01-0.255D-01
 Coeff:     -0.200D+00 0.121D+01
 Gap=     0.503 Goal=   None    Shift=    0.000
 RMSDP=3.79D-09 MaxDP=9.14D-08 DE=-1.25D-11 OVMax= 3.41D-07

 SCF Done:  E(RHF) =  -279.502030603     A.U. after   14 cycles
            NFock= 14  Conv=0.38D-08     -V/T= 2.0023
 KE= 2.788618048783D+02 PE=-8.951748120733D+02 EE= 2.198882669907D+02
 Leave Link  502 at Mon Feb 21 20:01:57 2022, MaxMem= 16106127360 cpu:              54.6 elap:               3.6
 (Enter /sw/contrib/gaussian/g16/B01/g16/l801.exe)
 ExpMin= 2.53D-02 ExpMax= 1.53D+04 ExpMxC= 5.22D+02 IAcc=3 IRadAn=         5 AccDes= 0.00D+00
 HarFok:  IExCor=  205 AccDes= 0.00D+00 IRadAn=         5 IDoV=-2 UseB2=F ITyADJ=14
 ICtDFT= 12500011 ScaDFX=  1.000000  1.000000  1.000000  1.000000
 Largest valence mixing into a core orbital is  2.08D-04
 Largest core mixing into a valence orbital is  3.63D-05
 Range of M.O.s used for correlation:     5   207
 NBasis=   207 NAE=    16 NBE=    16 NFC=     4 NFV=     0
 NROrb=    203 NOA=    12 NOB=    12 NVA=   191 NVB=   191

 **** Warning!!: The largest alpha MO coefficient is  0.17830742D+02

 Leave Link  801 at Mon Feb 21 20:01:58 2022, MaxMem= 16106127360 cpu:               2.2 elap:               0.1
 (Enter /sw/contrib/gaussian/g16/B01/g16/l906.exe)
 Frozen-core derivative calculation, NFC=   4 NFV=   0.
 FulOut=F Deriv=T AODrv=T NAtomX=     5
   MMem=           0  MDisk=          12 MDiskD=          12
  W3Min=      811440 MinDsk=     2425030 NBas6D=         245
 NBas2D=       30762    NTT=       30135    LW2=     7400000
    MDV= 16105574283 MDiskM=      328644 NBas2p=       30702
 Disk-based method using ON**2 memory for 12 occupieds at a time.
 Permanent disk used for amplitudes=    11516536 words.
 Estimated scratch disk usage=   321251614 words.
 IMap=   1   2   3   4   5   6   7   8   9  10  11  12  13  14  15  16
 Actual    scratch disk usage=   310331678 words.
 JobTyp=1 Pass  1:  I=   5 to  16 NPSUse= 28 ParTrn=T ParDer=T DoDerP=T.
 (rs|ai) integrals will be sorted in core.
 Spin components of T(2) and E(2):
     alpha-alpha T2 =       0.3398335179D-01 E2=     -0.1223507335D+00
     alpha-beta  T2 =       0.1865986690D+00 E2=     -0.6999330089D+00
     beta-beta   T2 =       0.3398335179D-01 E2=     -0.1223507335D+00
 The integrals were generated   1 times.
 ANorm=    0.1120073825D+01
 E2 =    -0.9446344760D+00 EUMP2 =    -0.28044666507913D+03
 Leave Link  906 at Mon Feb 21 20:03:35 2022, MaxMem= 16106127360 cpu:            2711.1 elap:              97.0
 (Enter /sw/contrib/gaussian/g16/B01/g16/l1101.exe)
 Using compressed Sx but separate Hx and Fx, NAtomX=     5.
 Will process      6 centers per pass.
 Leave Link 1101 at Mon Feb 21 20:03:35 2022, MaxMem= 16106127360 cpu:               7.3 elap:               0.3
 (Enter /sw/contrib/gaussian/g16/B01/g16/l1102.exe)
 Leave Link 1102 at Mon Feb 21 20:03:35 2022, MaxMem= 16106127360 cpu:               0.5 elap:               0.0
 (Enter /sw/contrib/gaussian/g16/B01/g16/l1110.exe)
 Forming Gx(P) for the SCF density, NAtomX=     5.
 Integral derivatives from FoFJK, PRISM(SPDF).
 Do as many integral derivatives as possible in FoFJK.
 G2DrvN: MDV=   16106126844.
 G2DrvN: will do     6 centers at a time, making    1 passes.
 Calling FoFCou, ICntrl=  3107 FMM=F I1Cent=   0 AccDes= 0.00D+00.
 FoFJK:  IHMeth= 1 ICntrl=    3107 DoSepK=F KAlg= 0 I1Cent=           0 FoldK=F
 IRaf=         0 NMat=       1 IRICut=       1 DoRegI=T DoRafI=F ISym2E= 1 IDoP0=0 IntGTp=1.
 FoFCou: FMM=F IPFlag=           0 FMFlag=      100000 FMFlg1=           0
         NFxFlg=           0 DoJE=F BraDBF=F KetDBF=F FulRan=T
         wScrn=  0.000000 ICntrl=      3107 IOpCl=  0 I1Cent=           0 NGrid=           0
         NMat0=    1 NMatS0=      1 NMatT0=    0 NMatD0=    1 NMtDS0=    0 NMtDT0=    0
 Petite list used in FoFCou.
 End of G2Drv F.D. properties file   721 does not exist.
 End of G2Drv F.D. properties file   722 does not exist.
 End of G2Drv F.D. properties file   788 does not exist.
 Leave Link 1110 at Mon Feb 21 20:03:38 2022, MaxMem= 16106127360 cpu:              83.8 elap:               3.0
 (Enter /sw/contrib/gaussian/g16/B01/g16/l1002.exe)
 Minotr:  Closed shell wavefunction.
          IDoAtm=11111
          Frozen-core window.
          Direct CPHF calculation.
          Differentiating once with respect to electric field.
                with respect to dipole field.
          Differentiating once with respect to nuclear coordinates.
          Requested convergence is 1.0D-08 RMS, and 1.0D-07 maximum.
          Secondary convergence is 1.0D-12 RMS, and 1.0D-12 maximum.
          NewPWx=T KeepS1=T KeepF1=T KeepIn=T MapXYZ=F SortEE=F KeepMc=T.
 Keep R1 ints in memory in symmetry-blocked form, NReq=348888983.
 FoFCou: FMM=F IPFlag=           0 FMFlag=           0 FMFlg1=           0
         NFxFlg=           0 DoJE=F BraDBF=F KetDBF=F FulRan=T
         wScrn=  0.000000 ICntrl=       600 IOpCl=  0 I1Cent=           0 NGrid=           0
         NMat0=    1 NMatS0=  21528 NMatT0=    0 NMatD0=    1 NMtDS0=    0 NMtDT0=    0
 Petite list used in FoFCou.
          MDV=   16106127360 using IRadAn=       1.
          Solving linear equations simultaneously, MaxMat=       0.
          There are    18 degrees of freedom in the 1st order CPHF.  IDoFFX=6 NUNeed=    18.
     15 vectors produced by pass  0 Test12= 1.70D-14 5.56D-09 XBig12= 8.28D+00 1.06D+00.
 AX will form    15 AO Fock derivatives at one time.
     15 vectors produced by pass  1 Test12= 1.70D-14 5.56D-09 XBig12= 1.34D+00 2.64D-01.
     15 vectors produced by pass  2 Test12= 1.70D-14 5.56D-09 XBig12= 1.41D-01 9.80D-02.
     15 vectors produced by pass  3 Test12= 1.70D-14 5.56D-09 XBig12= 4.99D-03 1.11D-02.
     15 vectors produced by pass  4 Test12= 1.70D-14 5.56D-09 XBig12= 1.00D-04 1.95D-03.
     15 vectors produced by pass  5 Test12= 1.70D-14 5.56D-09 XBig12= 1.42D-06 1.79D-04.
     15 vectors produced by pass  6 Test12= 1.70D-14 5.56D-09 XBig12= 1.12D-08 1.44D-05.
     13 vectors produced by pass  7 Test12= 1.70D-14 5.56D-09 XBig12= 8.27D-11 1.29D-06.
      3 vectors produced by pass  8 Test12= 1.70D-14 5.56D-09 XBig12= 5.73D-13 1.23D-07.
      2 vectors produced by pass  9 Test12= 1.70D-14 5.56D-09 XBig12= 3.71D-15 9.87D-09.
 InvSVY:  IOpt=1 It=  1 EMax= 8.88D-16
 Solved reduced A of dimension   123 with    15 vectors.
 FullF1:  Do perturbations      1 to      18.
 Saving first derivative matrices.
 End of Minotr F.D. properties file   721 does not exist.
 End of Minotr F.D. properties file   722 does not exist.
 End of Minotr F.D. properties file   788 does not exist.
 Leave Link 1002 at Mon Feb 21 20:03:41 2022, MaxMem= 16106127360 cpu:              81.4 elap:               2.9
 (Enter /sw/contrib/gaussian/g16/B01/g16/l811.exe)
 MDV= 16106127360.
 Form MO integral derivatives with frozen-active canonical formalism.
 MOERI=1 MOERIx=1 NAtoms=     5 NAtomX=     5.
 Discarding MO integrals.
 MO basis two electron integral derivatives will not be stored on disk.
 IAlg= 3 DoFC=T DoPWx=T Debug=F.
 Frozen-core window:  NFC=   4 NFV=   0.
 Reordered first order wavefunction length =     18678272
 In DefCFB: NBatch=  1 ICI= 16 ICA=191 LFMax= 96
            Large arrays: LIAPS=   619940160 LIARS=   288257200 words.
 In StABat: MaxSiz= 55 MinSiz= 25 NAtomB=  5
 DoIAMN: NPSUse= 28.
 Leave Link  811 at Mon Feb 21 20:05:01 2022, MaxMem= 16106127360 cpu:            2237.6 elap:              80.1
 (Enter /sw/contrib/gaussian/g16/B01/g16/l804.exe)
 Frozen-core window:  NFC=   4 NFV=   0.
 Closed-shell transformation, MDV= 16106127360 ITran=4 ISComp=1.
 Semi-Direct transformation.
 ModeAB=           2 MOrb=            16 LenV=   16104923051
 LASXX=     67341636 LTotXX=    67341636 LenRXX=    67341636
 LTotAB=    68301760 MaxLAS=    99807120 LenRXY=    99807120
 NonZer=   134683272 LenScr=   202817536 LnRSAI=           0
 LnScr1=           0 LExtra=           0 Total=    369966292
 MaxDsk=          -1 SrtSym=           F ITran=            4
 DoSDTr:  NPSUse= 28
 JobTyp=0 Pass  1:  I=   1 to  16.
 (rs|ai) integrals will be sorted in core.
 Complete sort for first half transformation.
 First half transformation complete.
 Begin second half transformation for I=  10.
 Begin second half transformation for I=  10.
 Complete sort for second half transformation.
 Second half transformation complete.
 Spin components of T(2) and E(2):
     alpha-alpha T2 =       0.3398335179D-01 E2=     -0.1223507335D+00
     alpha-beta  T2 =       0.1865986690D+00 E2=     -0.6999330089D+00
     beta-beta   T2 =       0.3398335179D-01 E2=     -0.1223507335D+00
 ANorm=    0.1584023594D+01
 E2 =    -0.9446344760D+00 EUMP2 =    -0.28044666507913D+03
 Leave Link  804 at Mon Feb 21 20:05:17 2022, MaxMem= 16106127360 cpu:             428.9 elap:              15.4
 (Enter /sw/contrib/gaussian/g16/B01/g16/l1002.exe)
 Minotr:  Closed shell wavefunction.
          Computing MP2/KS-MP2 derivatives.
          Using Z-Vector for PSCF gradient.
          Skipping F1 and S1 gradient terms here.
          IDoAtm=11111
          Frozen-core window.
          Using MO integrals in the linear equations.
          Forming densities via direct SCF.
          Differentiating once with respect to electric field.
                with respect to dipole field.
          Differentiating once with respect to nuclear coordinates.
          Using symmetry in CPHF.
          Requested convergence is 1.0D-10 RMS, and 1.0D-09 maximum.
          NewPWx=F KeepS1=T KeepF1=T KeepIn=T MapXYZ=F SortEE=F KeepMc=T.
          MDV=   16106127360 using IRadAn=       5.
          Solving linear equations separately, MaxMat=       0.
          There are     1 degrees of freedom in the 1st order CPHF.  IDoFFX=0 NUNeed=     1.
 FoFJK:  IHMeth= 1 ICntrl=       0 DoSepK=F KAlg= 0 I1Cent=           0 FoldK=F
 IRaf=         0 NMat=       1 IRICut=       1 DoRegI=T DoRafI=F ISym2E= 0 IDoP0=0 IntGTp=1.
 FoFCou: FMM=F IPFlag=           0 FMFlag=      100000 FMFlg1=           0
         NFxFlg=           0 DoJE=F BraDBF=F KetDBF=F FulRan=T
         wScrn=  0.000000 ICntrl=         0 IOpCl=  0 I1Cent=           0 NGrid=           0
         NMat0=    1 NMatS0=      1 NMatT0=    0 NMatD0=    1 NMtDS0=    0 NMtDT0=    0
 Symmetry not used in FoFCou.
 LinEq1:  Iter=  0 NonCon=     1 RMS=5.95D-03 Max=1.33D-01 NDo=     1
 LinEq1:  Iter=  1 NonCon=     1 RMS=1.90D-03 Max=3.83D-02 NDo=     1
 LinEq1:  Iter=  2 NonCon=     1 RMS=8.67D-04 Max=1.42D-02 NDo=     1
 LinEq1:  Iter=  3 NonCon=     1 RMS=3.87D-04 Max=7.82D-03 NDo=     1
 LinEq1:  Iter=  4 NonCon=     1 RMS=1.19D-04 Max=1.90D-03 NDo=     1
 LinEq1:  Iter=  5 NonCon=     1 RMS=4.56D-05 Max=7.26D-04 NDo=     1
 LinEq1:  Iter=  6 NonCon=     1 RMS=2.04D-05 Max=2.33D-04 NDo=     1
 LinEq1:  Iter=  7 NonCon=     1 RMS=8.16D-06 Max=1.60D-04 NDo=     1
 LinEq1:  Iter=  8 NonCon=     1 RMS=3.46D-06 Max=3.42D-05 NDo=     1
 LinEq1:  Iter=  9 NonCon=     1 RMS=9.39D-07 Max=1.31D-05 NDo=     1
 LinEq1:  Iter= 10 NonCon=     1 RMS=1.84D-07 Max=2.01D-06 NDo=     1
 LinEq1:  Iter= 11 NonCon=     1 RMS=3.43D-08 Max=3.55D-07 NDo=     1
 LinEq1:  Iter= 12 NonCon=     1 RMS=8.26D-09 Max=1.28D-07 NDo=     1
 LinEq1:  Iter= 13 NonCon=     1 RMS=1.49D-09 Max=2.56D-08 NDo=     1
 LinEq1:  Iter= 14 NonCon=     1 RMS=2.71D-10 Max=3.81D-09 NDo=     1
 LinEq1:  Iter= 15 NonCon=     0 RMS=4.88D-11 Max=5.49D-10 NDo=     1
 Linear equations converged to 1.000D-10 1.000D-09 after    15 iterations.
 End of Minotr F.D. properties file   721 does not exist.
 End of Minotr F.D. properties file   722 does not exist.
 End of Minotr F.D. properties file   788 does not exist.
 Leave Link 1002 at Mon Feb 21 20:05:19 2022, MaxMem= 16106127360 cpu:              68.5 elap:               2.5
 (Enter /sw/contrib/gaussian/g16/B01/g16/l1102.exe)
 Use density number 2.
 Symmetrizing basis deriv contribution to polar:
 IMax=3 JMax=2 DiffMx= 0.00D+00
 Leave Link 1102 at Mon Feb 21 20:05:19 2022, MaxMem= 16106127360 cpu:               1.5 elap:               0.1
 (Enter /sw/contrib/gaussian/g16/B01/g16/l1110.exe)
 Forming Gx(P) for generalized density number  2 NAtomX=     5.
 Integral derivatives from FoFJK, PRISM(SPDF).
 Do as many integral derivatives as possible in FoFJK.
 G2DrvN: MDV=   16106126844.
 G2DrvN: will do     6 centers at a time, making    1 passes.
 Calling FoFCou, ICntrl=  3107 FMM=F I1Cent=   0 AccDes= 0.00D+00.
 FoFJK:  IHMeth= 1 ICntrl=    3107 DoSepK=F KAlg= 0 I1Cent=           0 FoldK=F
 IRaf=         0 NMat=       1 IRICut=       1 DoRegI=T DoRafI=F ISym2E= 1 IDoP0=0 IntGTp=1.
 FoFCou: FMM=F IPFlag=           0 FMFlag=      100000 FMFlg1=           0
         NFxFlg=           0 DoJE=F BraDBF=F KetDBF=F FulRan=T
         wScrn=  0.000000 ICntrl=      3107 IOpCl=  0 I1Cent=           0 NGrid=           0
         NMat0=    1 NMatS0=      1 NMatT0=    0 NMatD0=    1 NMtDS0=    0 NMtDT0=    0
 Petite list used in FoFCou.
 End of G2Drv F.D. properties file   721 does not exist.
 End of G2Drv F.D. properties file   722 does not exist.
 End of G2Drv F.D. properties file   788 does not exist.
 Leave Link 1110 at Mon Feb 21 20:05:22 2022, MaxMem= 16106127360 cpu:              84.4 elap:               3.0
 (Enter /sw/contrib/gaussian/g16/B01/g16/l1112.exe)
 MP22nd: MDV=   16106127360
 This link is doing NAtomX=     5 total of    18 degrees of freedom.
 Using ON3 I/O method in MakUI.
 Frozen-core window:  NFC=   4 NFV=   0.
 Using Ix for Sx.
 Use MO integrals over full window.
 Using OV2 memory method for fx*t*t/D, MaxI=    16 DoOO2=F NP=  28.
 R2 and R3 integrals will be kept in memory, NReq=   915591705.
 FoFCou: FMM=F IPFlag=           0 FMFlag=           0 FMFlg1=           0
         NFxFlg=           0 DoJE=F BraDBF=F KetDBF=F FulRan=T
         wScrn=  0.000000 ICntrl=       600 IOpCl=  0 I1Cent=           0 NGrid=           0
         NMat0=    1 NMatS0=      1 NMatT0=    0 NMatD0=    1 NMtDS0=    0 NMtDT0=    0
 Symmetry not used in FoFCou.
 DD1Dir will call FoFMem   1 times, MxPair=       272
 NAB=   136 NAA=     0 NBB=     0.
 Symmetry is being used.
 FoFJK:  IHMeth= 1 ICntrl=       0 DoSepK=F KAlg= 0 I1Cent=           0 FoldK=F
 IRaf=         0 NMat=      18 IRICut=      45 DoRegI=T DoRafI=T ISym2E= 2 IDoP0=3 IntGTp=3.
 Discarding MO integrals.
 Leave Link 1112 at Mon Feb 21 20:05:53 2022, MaxMem= 16106127360 cpu:             849.2 elap:              30.6
 (Enter /sw/contrib/gaussian/g16/B01/g16/l601.exe)
 Copying SCF densities to generalized density rwf, IOpCl= 0 IROHF=0.

 **********************************************************************

            Population analysis using the MP2 Density.

 **********************************************************************

 Orbital symmetries:
       Occupied  (A') (A') (A') (A') (A') (A') (A') (A') (A') (A')
                 (A") (A') (A") (A') (A") (A')
       Virtual   (A') (A") (A') (A') (A") (A') (A') (A') (A") (A')
                 (A") (A') (A') (A') (A") (A') (A') (A") (A') (A')
                 (A') (A') (A') (A') (A") (A') (A') (A") (A') (A')
                 (A") (A') (A") (A') (A') (A") (A') (A') (A") (A')
                 (A") (A') (A") (A') (A') (A") (A') (A') (A") (A')
                 (A") (A') (A') (A') (A") (A') (A") (A') (A") (A')
                 (A') (A') (A") (A') (A') (A") (A') (A") (A') (A')
                 (A") (A') (A') (A") (A") (A') (A') (A") (A') (A')
                 (A') (A") (A') (A") (A') (A") (A') (A") (A') (A')
                 (A") (A') (A') (A") (A') (A") (A') (A") (A') (A')
                 (A") (A') (A") (A') (A') (A") (A') (A') (A") (A')
                 (A") (A') (A') (A') (A") (A') (A') (A') (A") (A')
                 (A") (A') (A") (A') (A') (A") (A") (A') (A") (A')
                 (A') (A') (A') (A") (A") (A") (A') (A') (A') (A')
                 (A") (A') (A") (A') (A') (A") (A') (A') (A') (A')
                 (A") (A') (A') (A") (A') (A") (A') (A") (A') (A")
                 (A') (A") (A') (A") (A') (A") (A") (A') (A") (A')
                 (A") (A') (A") (A') (A") (A') (A") (A") (A') (A')
                 (A') (A') (A') (A') (A') (A') (A') (A') (A') (A')
                 (A')
 The electronic state is 1-A'.
 Alpha  occ. eigenvalues --  -20.69112 -20.68446 -20.65930 -15.81301  -1.62423
 Alpha  occ. eigenvalues --   -1.49683  -1.25612  -0.94827  -0.77352  -0.75987
 Alpha  occ. eigenvalues --   -0.71200  -0.68069  -0.62072  -0.58984  -0.48552
 Alpha  occ. eigenvalues --   -0.47274
 Alpha virt. eigenvalues --    0.02979   0.07154   0.08591   0.10170   0.13389
 Alpha virt. eigenvalues --    0.13394   0.14443   0.15486   0.17813   0.19415
 Alpha virt. eigenvalues --    0.19978   0.20637   0.22078   0.23518   0.23730
 Alpha virt. eigenvalues --    0.26625   0.29359   0.30428   0.31079   0.34336
 Alpha virt. eigenvalues --    0.34927   0.38733   0.42301   0.43286   0.52727
 Alpha virt. eigenvalues --    0.52913   0.55847   0.58151   0.62585   0.63827
 Alpha virt. eigenvalues --    0.67435   0.68526   0.70636   0.71147   0.72483
 Alpha virt. eigenvalues --    0.72944   0.74484   0.79132   0.79216   0.81044
 Alpha virt. eigenvalues --    0.81261   0.83071   0.86811   0.90813   0.92236
 Alpha virt. eigenvalues --    0.92645   0.95732   0.97649   0.98580   1.01824
 Alpha virt. eigenvalues --    1.05159   1.05485   1.08315   1.11900   1.14222
 Alpha virt. eigenvalues --    1.18920   1.22131   1.23434   1.33859   1.35000
 Alpha virt. eigenvalues --    1.38610   1.45590   1.49019   1.51044   1.53779
 Alpha virt. eigenvalues --    1.56697   1.57919   1.61427   1.66341   1.66919
 Alpha virt. eigenvalues --    1.70336   1.79341   1.83156   1.83451   1.87801
 Alpha virt. eigenvalues --    1.91102   1.96073   1.99247   2.00740   2.07779
 Alpha virt. eigenvalues --    2.12200   2.13191   2.14983   2.22491   2.26366
 Alpha virt. eigenvalues --    2.26523   2.28959   2.31522   2.34454   2.38784
 Alpha virt. eigenvalues --    2.42450   2.42956   2.45410   2.46298   2.47714
 Alpha virt. eigenvalues --    2.50191   2.58626   2.59693   2.62056   2.62577
 Alpha virt. eigenvalues --    2.63431   2.66624   2.75752   2.82206   2.85600
 Alpha virt. eigenvalues --    2.88468   2.89370   2.92496   2.95784   3.02659
 Alpha virt. eigenvalues --    3.06871   3.12046   3.20443   3.22734   3.31787
 Alpha virt. eigenvalues --    3.34252   3.51670   3.64681   3.83854   3.85400
 Alpha virt. eigenvalues --    4.15648   4.16603   4.18576   4.25846   4.35913
 Alpha virt. eigenvalues --    4.39510   4.46614   4.52240   4.66271   4.71397
 Alpha virt. eigenvalues --    4.80612   4.82442   4.84360   4.89592   5.02322
 Alpha virt. eigenvalues --    5.07753   5.11113   5.14984   5.18386   5.25507
 Alpha virt. eigenvalues --    5.27482   5.31013   5.35066   5.35742   5.61099
 Alpha virt. eigenvalues --    5.67362   5.77187   5.83372   5.95836   6.16673
 Alpha virt. eigenvalues --    6.30894   6.33693   6.39658   6.49360   6.50540
 Alpha virt. eigenvalues --    6.61513   6.66716   6.69967   6.75731   6.76318
 Alpha virt. eigenvalues --    6.83290   6.89824   7.01864   7.05741   7.05800
 Alpha virt. eigenvalues --    7.09102   7.12618   7.15160   7.18178   7.22725
 Alpha virt. eigenvalues --    7.25688   7.31591   7.32546   7.35012   7.39901
 Alpha virt. eigenvalues --    7.43303   7.48447   7.60859   7.61973   7.62861
 Alpha virt. eigenvalues --    7.66857   7.79929   7.88710   8.09663   8.31722
 Alpha virt. eigenvalues --    8.42025   8.54736  13.39343  14.40198  15.28967
 Alpha virt. eigenvalues --   16.15238
          Condensed to atoms (all electrons):
               1          2          3          4          5
     1  H    0.599068   0.125015   0.021050   0.012633  -0.000678
     2  O    0.125015   8.319413  -0.174666  -0.091110   0.015601
     3  O    0.021050  -0.174666   8.470221  -0.130180  -0.038703
     4  N    0.012633  -0.091110  -0.130180   6.972076  -0.055746
     5  O   -0.000678   0.015601  -0.038703  -0.055746   8.272791
 Mulliken charges:
               1
     1  H    0.242912
     2  O   -0.194253
     3  O   -0.147721
     4  N    0.292327
     5  O   -0.193265
 Sum of Mulliken charges =  -0.00000
 Mulliken charges with hydrogens summed into heavy atoms:
               1
     2  O    0.048658
     3  O   -0.147721
     4  N    0.292327
     5  O   -0.193265
 APT charges:
               1
     1  H    0.299607
     2  O   -0.289606
     3  O   -0.495128
     4  N    0.876752
     5  O   -0.391626
 Sum of APT charges =  -0.00000
 APT charges with hydrogens summed into heavy atoms:
               1
     2  O    0.010001
     3  O   -0.495128
     4  N    0.876752
     5  O   -0.391626
 Electronic spatial extent (au):  <R**2>=            252.7964
 Charge=             -0.0000 electrons
 Dipole moment (field-independent basis, Debye):
    X=              0.5037    Y=              1.3497    Z=              0.0000  Tot=              1.4406
 Quadrupole moment (field-independent basis, Debye-Ang):
   XX=            -22.4652   YY=            -18.6492   ZZ=            -21.9994
   XY=              3.2389   XZ=             -0.0000   YZ=              0.0000
 Traceless Quadrupole moment (field-independent basis, Debye-Ang):
   XX=             -1.4272   YY=              2.3887   ZZ=             -0.9615
   XY=              3.2389   XZ=             -0.0000   YZ=              0.0000
 Octapole moment (field-independent basis, Debye-Ang**2):
  XXX=              2.8776  YYY=             11.1973  ZZZ=              0.0000  XYY=              7.8491
  XXY=              6.5577  XXZ=             -0.0000  XZZ=             -1.5637  YZZ=             -0.8426
  YYZ=              0.0000  XYZ=             -0.0000
 Hexadecapole moment (field-independent basis, Debye-Ang**3):
 XXXX=           -158.3405 YYYY=            -89.8545 ZZZZ=            -18.2230 XXXY=            -36.6580
 XXXZ=             -0.0000 YYYX=            -30.8640 YYYZ=              0.0000 ZZZX=             -0.0000
 ZZZY=              0.0000 XXYY=            -34.0207 XXZZ=            -30.8389 YYZZ=            -20.6321
 XXYZ=             -0.0000 YYXZ=              0.0000 ZZXY=            -15.0305
 N-N= 1.169227096012D+02 E-N=-8.959581634252D+02  KE= 2.802125194935D+02
 Symmetry A'   KE= 2.662404696259D+02
 Symmetry A"   KE= 1.397204986755D+01
  Exact polarizability:  33.961   9.431  30.133   0.000  -0.000  17.906
 Approx polarizability:  28.984   5.094  23.431  -0.000  -0.000  15.508
 No NMR shielding tensors so no spin-rotation constants.
 Leave Link  601 at Mon Feb 21 20:05:53 2022, MaxMem= 16106127360 cpu:               6.8 elap:               0.3
 (Enter /sw/contrib/gaussian/g16/B01/g16/l701.exe)
 ... and contract with generalized density number  2.
 Compute integral second derivatives.
 Leave Link  701 at Mon Feb 21 20:05:54 2022, MaxMem= 16106127360 cpu:               5.8 elap:               0.2
 (Enter /sw/contrib/gaussian/g16/B01/g16/l702.exe)
 L702 exits ... SP integral derivatives will be done elsewhere.
 Leave Link  702 at Mon Feb 21 20:05:54 2022, MaxMem= 16106127360 cpu:               1.0 elap:               0.1
 (Enter /sw/contrib/gaussian/g16/B01/g16/l703.exe)
 Integral derivatives from FoFJK, PRISM(SPDF).
 Compute integral second derivatives, UseDBF=F ICtDFT=           0.
 Calling FoFJK, ICntrl=  10100127 FMM=F ISym2X=1 I1Cent= 0 IOpClX= 0 NMat=1 NMatS=1 NMatT=0.
 FoFJK:  IHMeth= 1 ICntrl=10100127 DoSepK=F KAlg= 0 I1Cent=           0 FoldK=F
 IRaf=         0 NMat=       1 IRICut=       1 DoRegI=T DoRafI=F ISym2E= 1 IDoP0=0 IntGTp=1.
 FoFCou: FMM=F IPFlag=           0 FMFlag=      100000 FMFlg1=         800
         NFxFlg=           0 DoJE=F BraDBF=F KetDBF=F FulRan=T
         wScrn=  0.000000 ICntrl=  10100127 IOpCl=  0 I1Cent=           0 NGrid=           0
         NMat0=    1 NMatS0=      1 NMatT0=    0 NMatD0=    1 NMtDS0=    0 NMtDT0=    0
 Petite list used in FoFCou.
 Leave Link  703 at Mon Feb 21 20:06:09 2022, MaxMem= 16106127360 cpu:             421.3 elap:              15.1
 (Enter /sw/contrib/gaussian/g16/B01/g16/l716.exe)
 Dipole        = 1.98155819D-01 5.31017487D-01 1.62488153D-32
 Polarizability= 3.39613482D+01 9.43139785D+00 3.01329747D+01
                 1.33957356D-30-1.14415043D-30 1.79063184D+01
 Full mass-weighted force constant matrix:
 Low frequencies --- -450.2848  -51.5499  -33.9425   -0.0012   -0.0008    0.0008
 Low frequencies ---    7.3957  228.4238  332.7063
 ******    1 imaginary frequencies (negative Signs) ****** 
 Diagonal vibrational polarizability:
       14.0017243      25.2955285      17.2566756
 Harmonic frequencies (cm**-1), IR intensities (KM/Mole), Raman scattering
 activities (A**4/AMU), depolarization ratios for plane and unpolarized
 incident light, reduced masses (AMU), force constants (mDyne/A),
 and normal coordinates:
                      1                      2                      3
                     A"                     A"                     A'
 Frequencies --   -444.9265               228.3142               332.6261
 Red. masses --      1.1234                11.9456                 8.2272
 Frc consts  --      0.1310                 0.3669                 0.5363
 IR Inten    --    126.2818                 0.1735                 5.2970
  Atom  AN      X      Y      Z        X      Y      Z        X      Y      Z
     1   1     0.00  -0.00   1.00     0.00   0.00  -0.48     0.57  -0.43  -0.00
     2   8     0.00  -0.00  -0.06     0.00   0.00  -0.34    -0.09  -0.37   0.00
     3   8    -0.00   0.00  -0.04     0.00   0.00   0.34    -0.14   0.42  -0.00
     4   7    -0.00   0.00   0.05    -0.00  -0.00   0.57     0.04   0.24  -0.00
     5   8     0.00  -0.00  -0.00    -0.00  -0.00  -0.47     0.16  -0.25   0.00
                      4                      5                      6
                     A'                     A'                     A'
 Frequencies --    451.8007               782.0281               966.6816
 Red. masses --     12.3058                12.4890                15.5678
 Frc consts  --      1.4800                 4.5001                 8.5713
 IR Inten    --    199.1575               164.2319                24.6642
  Atom  AN      X      Y      Z        X      Y      Z        X      Y      Z
     1   1     0.41   0.20   0.00    -0.39   0.18   0.00    -0.13  -0.04  -0.00
     2   8     0.32   0.21   0.00     0.42   0.07   0.00    -0.52   0.04   0.00
     3   8     0.18   0.43  -0.00    -0.07  -0.25  -0.00     0.75  -0.03  -0.00
     4   7    -0.35  -0.41  -0.00    -0.14   0.61  -0.00    -0.12   0.25  -0.00
     5   8    -0.22  -0.30   0.00    -0.21  -0.37   0.00    -0.12  -0.23   0.00
                      7                      8                      9
                     A'                     A'                     A'
 Frequencies --   1342.2210              1677.1558              3892.0584
 Red. masses --      1.1414                13.3960                 1.0675
 Frc consts  --      1.2115                22.2010                 9.5277
 IR Inten    --    154.4668               142.0904                83.5993
  Atom  AN      X      Y      Z        X      Y      Z        X      Y      Z
     1   1     0.99  -0.05   0.00    -0.33   0.00  -0.00     0.10   0.99  -0.00
     2   8    -0.03   0.06   0.00    -0.00  -0.04  -0.00    -0.01  -0.06  -0.00
     3   8    -0.02  -0.05  -0.00     0.00   0.15   0.00     0.00   0.00   0.00
     4   7     0.02   0.01  -0.00     0.71  -0.05   0.00    -0.00  -0.00   0.00
     5   8    -0.03  -0.01   0.00    -0.60  -0.07  -0.00     0.00   0.00  -0.00

 -------------------
 - Thermochemistry -
 -------------------
 Temperature   298.150 Kelvin.  Pressure   1.00000 Atm.
 Atom     1 has atomic number  1 and mass   1.00783
 Atom     2 has atomic number  8 and mass  15.99491
 Atom     3 has atomic number  8 and mass  15.99491
 Atom     4 has atomic number  7 and mass  14.00307
 Atom     5 has atomic number  8 and mass  15.99491
 Molecular mass:    62.99564 amu.
 Principal axes and moments of inertia in atomic units:
                           1         2         3
     Eigenvalues --    32.81876 360.05273 392.87149
           X            0.81024  -0.58609   0.00000
           Y            0.58609   0.81024   0.00000
           Z            0.00000   0.00000   1.00000
 This molecule is an asymmetric top.
 Rotational symmetry number  1.
 Rotational temperatures (Kelvin)      2.63916     0.24056     0.22046
 Rotational constants (GHZ):          54.99115     5.01244     4.59372
    1 imaginary frequencies ignored.
 Zero-point vibrational energy      57856.7 (Joules/Mol)
                                   13.82808 (Kcal/Mol)
 Warning -- explicit consideration of   3 degrees of freedom as
           vibrations may cause significant error
 Vibrational temperatures:    328.49   478.57   650.04  1125.16  1390.84
          (Kelvin)           1931.16  2413.05  5599.80
 
 Zero-point correction=                           0.022036 (Hartree/Particle)
 Thermal correction to Energy=                    0.026167
 Thermal correction to Enthalpy=                  0.027111
 Thermal correction to Gibbs Free Energy=        -0.004097
 Sum of electronic and zero-point Energies=           -280.424629
 Sum of electronic and thermal Energies=              -280.420498
 Sum of electronic and thermal Enthalpies=            -280.419554
 Sum of electronic and thermal Free Energies=         -280.450762
 
                     E (Thermal)             CV                S
                      KCal/Mol        Cal/Mol-Kelvin    Cal/Mol-Kelvin
 Total                   16.420             11.991             65.684
 Electronic               0.000              0.000              0.000
 Translational            0.889              2.981             38.341
 Rotational               0.889              2.981             23.055
 Vibrational             14.643              6.029              4.288
 Vibration     1          0.651              1.798              1.892
 Vibration     2          0.715              1.610              1.247
 Vibration     3          0.810              1.357              0.790
                       Q            Log10(Q)             Ln(Q)
 Total Bot       0.766383D+02          1.884446          4.339097
 Total V=0       0.104834D+13         12.020503         27.678231
 Vib (Bot)       0.159886D-09         -9.796189        -22.556558
 Vib (Bot)    1  0.863297D+00         -0.063840         -0.146997
 Vib (Bot)    2  0.560820D+00         -0.251176         -0.578355
 Vib (Bot)    3  0.379008D+00         -0.421351         -0.970198
 Vib (V=0)       0.218710D+01          0.339868          0.782576
 Vib (V=0)    1  0.149764D+01          0.175407          0.403889
 Vib (V=0)    2  0.125135D+01          0.097377          0.224219
 Vib (V=0)    3  0.112741D+01          0.052083          0.119926
 Electronic      0.100000D+01          0.000000          0.000000
 Translational   0.196526D+08          7.293420         16.793719
 Rotational      0.243902D+05          4.387215         10.101936
 
                                                                title
                                                             IR Spectrum
 
     3                                                                        1          1                                           
     8                                                                        6          3           9     7          4   3  2       
     9                                                                        7          4           6     8          5   3  2       
     2                                                                        7          2           7     2          2   3  8       
 
     X                                                                        X          X           X     X          X   X  X       
     X                                                                        X          X           X     X          X              
     X                                                                        X          X                 X          X              
     X                                                                        X          X                 X          X              
     X                                                                        X          X                 X          X              
     X                                                                        X          X                 X          X              
     X                                                                        X          X                 X          X              
     X                                                                        X          X                 X          X              
                                                                              X          X                 X          X              
                                                                              X          X                 X          X              
                                                                              X          X                 X          X              
                                                                              X          X                 X          X              
                                                                              X          X                 X          X              
                                                                              X          X                 X          X              
                                                                                         X                 X          X              
                                                                                         X                 X          X              
                                                                                                                      X              
                                                                                                                      X              
                                                                                                                      X              
                                                                                                                      X              
 
 ***** Axes restored to original set *****
 -------------------------------------------------------------------
 Center     Atomic                   Forces (Hartrees/Bohr)
 Number     Number              X              Y              Z
 -------------------------------------------------------------------
      1        1          -0.000019872    0.000000000   -0.008619035
      2        8           0.000436954   -0.000000000    0.008653971
      3        8          -0.000396775   -0.000000000   -0.000003775
      4        7          -0.000340607   -0.000000000   -0.000080995
      5        8           0.000320299    0.000000000    0.000049834
 -------------------------------------------------------------------
 Cartesian Forces:  Max     0.008653971 RMS     0.003159698
 -----------------------------------------------------------------------------------------------
                       Internal Coordinate Forces (Hartree/Bohr or radian)
  Cent   Atom   N1       Length/X         N2         Alpha/Y        N3         Beta/Z          J
 -----------------------------------------------------------------------------------------------
      1  H 
      2  O        1   0.008619(     1)
      3  O        2  -0.000418(     2)      1   0.000036(     5)
      4  N        3  -0.000033(     3)      2   0.000020(     6)      1  -0.000000(     8)     0
      5  O        4   0.000323(     4)      3  -0.000069(     7)      2   0.000000(     9)     0
 -----------------------------------------------------------------------------------------------
 Internal  Forces:  Max     0.008619035 RMS     0.002878545
 Force constants in Cartesian coordinates: 
                1             2             3             4             5 
      1  0.613126D-01
      2  0.000000D+00 -0.715029D-02
      3  0.538840D-02  0.000000D+00  0.543557D+00
      4 -0.320009D-01  0.000000D+00 -0.165964D-01  0.268700D+00
      5  0.000000D+00  0.781712D-02  0.000000D+00  0.000000D+00 -0.255465D-02
      6  0.488844D-01  0.000000D+00 -0.539760D+00  0.332863D-01  0.000000D+00
      7 -0.186777D-01  0.000000D+00  0.127387D-01 -0.220043D+00  0.000000D+00
      8  0.000000D+00  0.103804D-02  0.000000D+00  0.000000D+00 -0.670630D-02
      9 -0.538580D-01  0.000000D+00 -0.393790D-03 -0.190330D-01  0.000000D+00
     10 -0.937370D-02  0.000000D+00 -0.487960D-02 -0.170864D-01  0.000000D+00
     11  0.000000D+00 -0.274202D-02  0.000000D+00  0.000000D+00 -0.489190D-02
     12  0.539151D-02  0.000000D+00 -0.483207D-02  0.116087D-01  0.000000D+00
     13 -0.126030D-02  0.000000D+00  0.334883D-02  0.429479D-03  0.000000D+00
     14  0.000000D+00  0.103716D-02  0.000000D+00  0.000000D+00  0.633572D-02
     15 -0.580634D-02  0.000000D+00  0.142914D-02 -0.926568D-02  0.000000D+00
                6             7             8             9            10 
      6  0.626222D+00
      7 -0.214696D-01  0.341719D+00
      8  0.000000D+00  0.000000D+00  0.429910D-02
      9 -0.789273D-01  0.361533D-01  0.000000D+00  0.181434D+00
     10 -0.525745D-01 -0.780871D-01  0.000000D+00  0.174999D+00  0.828503D+00
     11  0.000000D+00  0.000000D+00  0.853630D-02  0.000000D+00  0.000000D+00
     12  0.171537D-01  0.629175D-01  0.000000D+00 -0.818463D-01 -0.178553D-01
     13 -0.812666D-02 -0.249116D-01  0.000000D+00 -0.138261D+00 -0.723956D+00
     14  0.000000D+00  0.000000D+00 -0.716713D-02  0.000000D+00  0.000000D+00
     15 -0.246876D-01 -0.903399D-01  0.000000D+00 -0.202670D-01 -0.996895D-01
               11            12            13            14            15 
     11  0.855078D-02
     12  0.000000D+00  0.186824D+00
     13  0.000000D+00 -0.620624D-01  0.749698D+00
     14 -0.945316D-02  0.000000D+00  0.000000D+00  0.924741D-02
     15  0.000000D+00 -0.117299D+00  0.205101D+00  0.000000D+00  0.160825D+00
 Force constants in internal coordinates: 
                1             2             3             4             5 
      1  0.543557D+00
      2 -0.106078D-01  0.281535D+00
      3  0.351698D-02  0.242784D-02  0.117332D+00
      4 -0.359872D-02  0.587931D-02  0.153052D+00  0.812043D+00
      5  0.975884D-02  0.657448D-01  0.233253D-02  0.483020D-02  0.217567D+00
      6  0.466110D-02  0.592172D-01  0.411625D-01  0.218600D-01  0.315219D-01
      7 -0.122452D-02  0.378080D-01  0.320734D-01  0.847579D-01  0.213286D-01
      8  0.000000D+00  0.000000D+00  0.000000D+00  0.000000D+00  0.000000D+00
      9  0.000000D+00  0.000000D+00  0.000000D+00  0.000000D+00  0.000000D+00
                6             7             8             9 
      6  0.283172D+00
      7  0.957975D-01  0.482727D+00
      8  0.000000D+00  0.000000D+00 -0.777296D-02
      9  0.000000D+00  0.000000D+00 -0.390036D-02  0.410892D-01
 Leave Link  716 at Mon Feb 21 20:06:09 2022, MaxMem= 16106127360 cpu:               6.0 elap:               0.3
 (Enter /sw/contrib/gaussian/g16/B01/g16/l103.exe)

 GradGradGradGradGradGradGradGradGradGradGradGradGradGradGradGradGradGrad
 Berny optimization.
 Search for a local minimum.
 Step number   1 out of a maximum of    2
 All quantities printed in internal units (Hartrees-Bohrs-Radians)
 Second derivative matrix not updated -- analytic derivatives used.
 The second derivative matrix:
                          r1        r2        r3        r4        a1
           r1           0.54356
           r2          -0.01061   0.28153
           r3           0.00352   0.00243   0.11733
           r4          -0.00360   0.00588   0.15305   0.81204
           a1           0.00976   0.06574   0.00233   0.00483   0.21757
           a2           0.00466   0.05922   0.04116   0.02186   0.03152
           a3          -0.00122   0.03781   0.03207   0.08476   0.02133
           d1           0.00000  -0.00000   0.00000   0.00000  -0.00000
           d2          -0.00000  -0.00000   0.00000   0.00000  -0.00000
                          a2        a3        d1        d2
           a2           0.28317
           a3           0.09580   0.48273
           d1          -0.00000  -0.00000  -0.00777
           d2          -0.00000  -0.00000  -0.00390   0.04109
 ITU=  0
     Eigenvalues ---   -0.00808   0.04140   0.07833   0.17563   0.22569
     Eigenvalues ---    0.32568   0.51738   0.54423   0.87099
 Eigenvalue     1 is  -8.08D-03 should be greater than     0.000000 Eigenvector:
                          d1        d2        r3        a3        a2
   1                    0.99687   0.07907  -0.00000   0.00000   0.00000
                          r4        a1        r2        r1
   1                    0.00000  -0.00000   0.00000   0.00000
 Angle between quadratic step and forces=   6.80 degrees.
 Linear search not attempted -- first point.
 Variable       Old X    -DE/DX   Delta X   Delta X   Delta X     New X
                                 (Linear)    (Quad)   (Total)
    r1        1.81476   0.00862   0.00000   0.01586   0.01586   1.83063
    r2        2.74940  -0.00042   0.00000  -0.00086  -0.00086   2.74854
    r3        2.75670  -0.00003   0.00000  -0.00189  -0.00189   2.75482
    r4        2.21236   0.00032   0.00000   0.00083   0.00083   2.21319
    a1        1.70335   0.00004   0.00000  -0.00031  -0.00031   1.70304
    a2        1.78543   0.00002   0.00000   0.00027   0.00027   1.78570
    a3        1.90362  -0.00007   0.00000  -0.00010  -0.00010   1.90353
    d1        3.14159  -0.00000   0.00000  -0.00000   0.00000   3.14159
    d2        3.14159   0.00000   0.00000   0.00000   0.00000   3.14159
         Item               Value     Threshold  Converged?
 Maximum Force            0.008619     0.000450     NO 
 RMS     Force            0.002879     0.000300     NO 
 Maximum Displacement     0.015861     0.001800     NO 
 RMS     Displacement     0.005341     0.001200     NO 
 Predicted change in Energy=-6.869765D-05
                       ----------------------------
                       ! Non-Optimized Parameters !
                       ! (Angstroms and Degrees)  !
 ----------------------                            ----------------------
 !      Name          Value   Derivative information (Atomic Units)     !
 ------------------------------------------------------------------------
 !       r1          0.9687   -DE/DX =    0.0086                        !
 !       r2          1.4545   -DE/DX =   -0.0004                        !
 !       r3          1.4578   -DE/DX =    0.0                           !
 !       r4          1.1712   -DE/DX =    0.0003                        !
 !       a1         97.577    -DE/DX =    0.0                           !
 !       a2        102.3128   -DE/DX =    0.0                           !
 !       a3        109.0641   -DE/DX =   -0.0001                        !
 !       d1        180.0      -DE/DX =    0.0                           !
 !       d2        180.0      -DE/DX =    0.0                           !
 ------------------------------------------------------------------------
 GradGradGradGradGradGradGradGradGradGradGradGradGradGradGradGradGradGrad

 Leave Link  103 at Mon Feb 21 20:06:09 2022, MaxMem= 16106127360 cpu:               0.5 elap:               0.0
 (Enter /sw/contrib/gaussian/g16/B01/g16/l9999.exe)

 ----------------------------------------------------------------------

 Electric dipole moment (input orientation):
 (Debye = 10**-18 statcoulomb cm , SI units = C m)
                  (au)            (Debye)         (10**-30 SI)
   Tot        0.566785D+00      0.144062D+01      0.480540D+01
   x         -0.145133D+00     -0.368892D+00     -0.123049D+01
   y          0.000000D+00      0.000000D+00      0.000000D+00
   z         -0.547888D+00     -0.139259D+01     -0.464519D+01

 Dipole polarizability, Alpha (input orientation).
 (esu units = cm**3 , SI units = C**2 m**2 J**-1)
 Alpha(0;0):
               (au)            (10**-24 esu)      (10**-40 SI)
   iso        0.273335D+02      0.405041D+01      0.450669D+01
   aniso      0.218589D+02      0.323915D+01      0.360404D+01
   xx         0.320839D+02      0.475434D+01      0.528992D+01
   yx         0.000000D+00      0.000000D+00      0.000000D+00
   yy         0.179063D+02      0.265344D+01      0.295235D+01
   zx         0.962362D+01      0.142607D+01      0.158672D+01
   zy         0.000000D+00      0.000000D+00      0.000000D+00
   zz         0.320104D+02      0.474345D+01      0.527780D+01

 ----------------------------------------------------------------------

 Dipole orientation:
     1         -0.00000000          0.00000000         -0.00000000
     8         -0.46469600          0.00000000         -1.75426032
     8          2.07667189         -0.00000000         -2.80337626
     7          1.59162441         -0.00000000         -5.51707057
     8          3.52277142         -0.00000000         -6.59651221

 Electric dipole moment (dipole orientation):
 (Debye = 10**-18 statcoulomb cm , SI units = C m)
                  (au)            (Debye)         (10**-30 SI)
   Tot        0.566785D+00      0.144062D+01      0.480540D+01
   x          0.000000D+00      0.000000D+00      0.000000D+00
   y          0.000000D+00      0.000000D+00      0.000000D+00
   z          0.566785D+00      0.144062D+01      0.480540D+01

 Dipole polarizability, Alpha (dipole orientation).
 (esu units = cm**3 , SI units = C**2 m**2 J**-1)
 Alpha(0;0):
               (au)            (10**-24 esu)      (10**-40 SI)
   iso        0.273335D+02      0.405041D+01      0.450669D+01
   aniso      0.218589D+02      0.323915D+01      0.360404D+01
   xx         0.273149D+02      0.404765D+01      0.450362D+01
   yx         0.000000D+00      0.000000D+00      0.000000D+00
   yy         0.179063D+02      0.265344D+01      0.295235D+01
   zx        -0.837979D+01     -0.124176D+01     -0.138164D+01
   zy         0.000000D+00      0.000000D+00      0.000000D+00
   zz         0.367794D+02      0.545015D+01      0.606411D+01

 ----------------------------------------------------------------------
 1\1\GINC-N2109\Freq\RMP2-FC\Aug-CC-pVTZ\H1N1O3\CGAVINH\21-Feb-2022\1\\
 #p freq mp2/aug-cc-pvtz density=current\\title\\0,1\H\O,1,r1\O,2,r2,1,
 a1\N,3,r3,2,a2,1,d1,0\O,4,r4,3,a3,2,d2,0\\r1=0.96033223\r2=1.45491931\
 r3=1.45878406\r4=1.17072885\a1=97.59494903\a2=102.29752444\a3=109.0695
 5123\d1=180.\d2=180.\\Version=ES64L-G16RevB.01\State=1-A'\HF=-279.5020
 306\MP2=-280.4466651\RMSD=3.789e-09\RMSF=3.160e-03\ZeroPoint=0.0220365
 \Thermal=0.0261673\Dipole=-0.1451333,0.,-0.5478883\DipoleDeriv=0.26529
 48,0.,0.0485287,0.,0.3567637,0.,0.0838406,0.,0.276763,-0.3280974,0.,-0
 .205877,0.,-0.3158433,0.,-0.1144644,0.,-0.224877,-0.0464116,0.,0.14547
 03,0.,-0.0866657,0.,-0.7506722,0.,-1.3523059,0.8955172,0.,0.9098411,0.
 ,0.0662533,0.,0.9223763,0.,1.6684856,-0.7863032,0.,-0.8979631,0.,-0.02
 0508,0.,-0.1410804,0.,-0.3680658\Polar=32.0839058,0.,17.9063184,9.6236
 181,0.,32.0104171\Quadrupole=-1.5037822,-0.714847,2.2186293,0.,2.08489
 28,0.\PG=CS [SG(H1N1O3)]\NImag=1\\0.06131257,0.,-0.00715029,0.00538840
 ,0.,0.54355711,-0.03200087,0.,-0.01659636,0.26870043,0.,0.00781712,0.,
 0.,-0.00255465,0.04888444,0.,-0.53976039,0.03328627,0.,0.62622156,-0.0
 1867771,0.,0.01273872,-0.22004260,0.,-0.02146956,0.34171903,0.,0.00103
 804,0.,0.,-0.00670630,0.,0.,0.00429910,-0.05385802,0.,-0.00039379,-0.0
 1903298,0.,-0.07892734,0.03615327,0.,0.18143443,-0.00937370,0.,-0.0048
 7960,-0.01708645,0.,-0.05257449,-0.07808714,0.,0.17499889,0.82850306,0
 .,-0.00274202,0.,0.,-0.00489190,0.,0.,0.00853630,0.,0.,0.00855078,0.00
 539151,0.,-0.00483207,0.01160875,0.,0.01715373,0.06291745,0.,-0.081846
 27,-0.01785532,0.,0.18682379,-0.00126030,0.,0.00334883,0.00042948,0.,-
 0.00812666,-0.02491159,0.,-0.13826117,-0.72395578,0.,-0.06206239,0.749
 69819,0.,0.00103716,0.,0.,0.00633572,0.,0.,-0.00716713,0.,0.,-0.009453
 16,0.,0.,0.00924741,-0.00580634,0.,0.00142914,-0.00926568,0.,-0.024687
 57,-0.09033989,0.,-0.02026703,-0.09968948,0.,-0.11729918,0.20510139,0.
 ,0.16082464\\0.00001987,0.,0.00861904,-0.00043695,0.,-0.00865397,0.000
 39678,0.,0.00000377,0.00034061,0.,0.00008099,-0.00032030,0.,-0.0000498
 3\\\@


 IN THE LONG RUN, DIGGING FOR TRUTH HAS ALWAYS PROVED NOT ONLY 
 MORE INTERESTING BUT MORE PROFITABLE THAN DIGGING FOR GOLD.

                             -- GEORGE R. HARRISON
 Job cpu time:       0 days  1 hours 57 minutes 56.5 seconds.
 Elapsed time:       0 days  0 hours  4 minutes 15.8 seconds.
 File lengths (MBytes):  RWF=   7239 Int=      0 D2E=      0 Chk=      8 Scr=      1
 Normal termination of Gaussian 16 at Mon Feb 21 20:06:10 2022.
