title                                                                   
Freq      RMP2-FC                                                     Aug-CC-pVTZ         
Number of atoms                            I                5
Info1-9                                    I   N=           9
          33          24           0           0           0         100
           6           2           1
Full Title                                 C   N=           1
title       
Route                                      C   N=           4
#p freq mp2/aug-cc-pvtz density=current         
Charge                                     I                0
Multiplicity                               I                1
Number of electrons                        I               32
Number of alpha electrons                  I               16
Number of beta electrons                   I               16
Number of basis functions                  I              207
Number of independent functions            I              207
Number of point charges in /Mol/           I                0
Number of translation vectors              I                0
Atomic numbers                             I   N=           5
           1           8           8           7           8
Nuclear charges                            R   N=           5
  1.00000000E+00  8.00000000E+00  8.00000000E+00  7.00000000E+00  8.00000000E+00
Current cartesian coordinates              R   N=          15
  2.09359025E+00 -1.12767938E+00  0.00000000E+00  2.48565402E+00  6.92670185E-01
  0.00000000E+00  1.77786281E-16  1.73703761E+00  0.00000000E+00 -1.87513202E+00
 -7.83238410E-02  0.00000000E+00 -1.10661228E+00 -2.22021451E+00  0.00000000E+00
Number of symbols in /Mol/                 I                0
Force Field                                I                0
Atom Types                                 C   N=           5
                                                            
Int Atom Types                             I   N=           5
           0           0           0           0           0
MM charges                                 R   N=           5
  0.00000000E+00  0.00000000E+00  0.00000000E+00  0.00000000E+00  0.00000000E+00
Integer atomic weights                     I   N=           5
           1          16          16          14          16
Real atomic weights                        R   N=           5
  1.00782504E+00  1.59949146E+01  1.59949146E+01  1.40030740E+01  1.59949146E+01
Atom fragment info                         I   N=           5
           0           0           0           0           0
Atom residue num                           I   N=           5
           0           0           0           0           0
Nuclear spins                              I   N=           5
           1           0           0           2           0
Nuclear ZEff                               R   N=           5
 -1.00000000E+00 -5.60000000E+00 -5.60000000E+00 -4.55000000E+00 -5.60000000E+00
Nuclear ZNuc                               R   N=           5
  1.00000000E+00  8.00000000E+00  8.00000000E+00  7.00000000E+00  8.00000000E+00
Nuclear QMom                               R   N=           5
  0.00000000E+00  0.00000000E+00  0.00000000E+00  2.04400000E+00  0.00000000E+00
Nuclear GFac                               R   N=           5
  2.79284600E+00  0.00000000E+00  0.00000000E+00  4.03761000E-01  0.00000000E+00
MicOpt                                     I   N=           5
          -1          -1          -1          -1          -1
Number of residues                         I                0
Number of secondary structures             I                0
SymInf integers                            I   N=          26
           1           2           1           1           1           1
           1          -1           0           0           0           0
           0           0           0           0           0           0
           0           0           0           0           0           0
           0           0
RotTr to input orientation                 R   N=          12
 -9.77583056E-01  0.00000000E+00  2.10550159E-01  2.10550159E-01  0.00000000E+00
  9.77583056E-01  0.00000000E+00  1.00000000E+00  0.00000000E+00  2.28409143E+00
  0.00000000E+00  6.61594495E-01
Number of contracted shells                I               65
Number of primitive shells                 I              119
Pure/Cartesian d shells                    I                0
Pure/Cartesian f shells                    I                0
Highest angular momentum                   I                3
Largest degree of contraction              I                7
Shell types                                I   N=          65
           0           0           0           0           1           1
           1          -2          -2           0           0           0
           0           0           1           1           1           1
          -2          -2          -2          -3          -3           0
           0           0           0           0           1           1
           1           1          -2          -2          -2          -3
          -3           0           0           0           0           0
           1           1           1           1          -2          -2
          -2          -3          -3           0           0           0
           0           0           1           1           1           1
          -2          -2          -2          -3          -3
Number of primitives per shell             I   N=          65
           3           1           1           1           1           1
           1           1           1           7           6           1
           1           1           3           1           1           1
           1           1           1           1           1           7
           6           1           1           1           3           1
           1           1           1           1           1           1
           1           7           6           1           1           1
           3           1           1           1           1           1
           1           1           1           7           6           1
           1           1           3           1           1           1
           1           1           1           1           1
Shell to atom map                          I   N=          65
           1           1           1           1           1           1
           1           1           1           2           2           2
           2           2           2           2           2           2
           2           2           2           2           2           3
           3           3           3           3           3           3
           3           3           3           3           3           3
           3           4           4           4           4           4
           4           4           4           4           4           4
           4           4           4           5           5           5
           5           5           5           5           5           5
           5           5           5           5           5
Primitive exponents                        R   N=         119
  3.38700000E+01  5.09500000E+00  1.15900000E+00  3.25800000E-01  1.02700000E-01
  2.52600000E-02  1.40700000E+00  3.88000000E-01  1.02000000E-01  1.05700000E+00
  2.47000000E-01  1.53300000E+04  2.29900000E+03  5.22400000E+02  1.47300000E+02
  4.75500000E+01  1.67600000E+01  6.20700000E+00  5.22400000E+02  1.47300000E+02
  4.75500000E+01  1.67600000E+01  6.20700000E+00  6.88200000E-01  1.75200000E+00
  2.38400000E-01  7.37600000E-02  3.44600000E+01  7.74900000E+00  2.28000000E+00
  7.15600000E-01  2.14000000E-01  5.97400000E-02  2.31400000E+00  6.45000000E-01
  2.14000000E-01  1.42800000E+00  5.00000000E-01  1.53300000E+04  2.29900000E+03
  5.22400000E+02  1.47300000E+02  4.75500000E+01  1.67600000E+01  6.20700000E+00
  5.22400000E+02  1.47300000E+02  4.75500000E+01  1.67600000E+01  6.20700000E+00
  6.88200000E-01  1.75200000E+00  2.38400000E-01  7.37600000E-02  3.44600000E+01
  7.74900000E+00  2.28000000E+00  7.15600000E-01  2.14000000E-01  5.97400000E-02
  2.31400000E+00  6.45000000E-01  2.14000000E-01  1.42800000E+00  5.00000000E-01
  1.14200000E+04  1.71200000E+03  3.89300000E+02  1.10000000E+02  3.55700000E+01
  1.25400000E+01  4.64400000E+00  3.89300000E+02  1.10000000E+02  3.55700000E+01
  1.25400000E+01  4.64400000E+00  5.11800000E-01  1.29300000E+00  1.78700000E-01
  5.76000000E-02  2.66300000E+01  5.94800000E+00  1.74200000E+00  5.55000000E-01
  1.72500000E-01  4.91000000E-02  1.65400000E+00  4.69000000E-01  1.51000000E-01
  1.09300000E+00  3.64000000E-01  1.53300000E+04  2.29900000E+03  5.22400000E+02
  1.47300000E+02  4.75500000E+01  1.67600000E+01  6.20700000E+00  5.22400000E+02
  1.47300000E+02  4.75500000E+01  1.67600000E+01  6.20700000E+00  6.88200000E-01
  1.75200000E+00  2.38400000E-01  7.37600000E-02  3.44600000E+01  7.74900000E+00
  2.28000000E+00  7.15600000E-01  2.14000000E-01  5.97400000E-02  2.31400000E+00
  6.45000000E-01  2.14000000E-01  1.42800000E+00  5.00000000E-01
Contraction coefficients                   R   N=         119
  2.54948632E-02  1.90362766E-01  8.52162022E-01  1.00000000E+00  1.00000000E+00
  1.00000000E+00  1.00000000E+00  1.00000000E+00  1.00000000E+00  1.00000000E+00
  1.00000000E+00  5.19808943E-04  4.02025621E-03  2.07128267E-02  8.10105536E-02
  2.35962985E-01  4.42653446E-01  3.57064423E-01 -4.42115008E-05 -1.22591041E-03
 -1.05517725E-02 -6.74452633E-02 -1.71198607E-01  1.07329856E+00  1.00000000E+00
  1.00000000E+00  1.00000000E+00  4.11634896E-02  2.57762836E-01  8.02419274E-01
  1.00000000E+00  1.00000000E+00  1.00000000E+00  1.00000000E+00  1.00000000E+00
  1.00000000E+00  1.00000000E+00  1.00000000E+00  5.19808943E-04  4.02025621E-03
  2.07128267E-02  8.10105536E-02  2.35962985E-01  4.42653446E-01  3.57064423E-01
 -4.42115008E-05 -1.22591041E-03 -1.05517725E-02 -6.74452633E-02 -1.71198607E-01
  1.07329856E+00  1.00000000E+00  1.00000000E+00  1.00000000E+00  4.11634896E-02
  2.57762836E-01  8.02419274E-01  1.00000000E+00  1.00000000E+00  1.00000000E+00
  1.00000000E+00  1.00000000E+00  1.00000000E+00  1.00000000E+00  1.00000000E+00
  5.34563860E-04  4.13435660E-03  2.12335358E-02  8.25006224E-02  2.38138871E-01
  4.42551547E-01  3.53757422E-01 -4.89867350E-05 -1.19527323E-03 -1.03490714E-02
 -6.48680190E-02 -1.71552477E-01  1.07289568E+00  1.00000000E+00  1.00000000E+00
  1.00000000E+00  3.98072123E-02  2.49002660E-01  8.10479727E-01  1.00000000E+00
  1.00000000E+00  1.00000000E+00  1.00000000E+00  1.00000000E+00  1.00000000E+00
  1.00000000E+00  1.00000000E+00  5.19808943E-04  4.02025621E-03  2.07128267E-02
  8.10105536E-02  2.35962985E-01  4.42653446E-01  3.57064423E-01 -4.42115008E-05
 -1.22591041E-03 -1.05517725E-02 -6.74452633E-02 -1.71198607E-01  1.07329856E+00
  1.00000000E+00  1.00000000E+00  1.00000000E+00  4.11634896E-02  2.57762836E-01
  8.02419274E-01  1.00000000E+00  1.00000000E+00  1.00000000E+00  1.00000000E+00
  1.00000000E+00  1.00000000E+00  1.00000000E+00  1.00000000E+00
Coordinates of each shell                  R   N=         195
  2.09359025E+00 -1.12767938E+00  0.00000000E+00  2.09359025E+00 -1.12767938E+00
  0.00000000E+00  2.09359025E+00 -1.12767938E+00  0.00000000E+00  2.09359025E+00
 -1.12767938E+00  0.00000000E+00  2.09359025E+00 -1.12767938E+00  0.00000000E+00
  2.09359025E+00 -1.12767938E+00  0.00000000E+00  2.09359025E+00 -1.12767938E+00
  0.00000000E+00  2.09359025E+00 -1.12767938E+00  0.00000000E+00  2.09359025E+00
 -1.12767938E+00  0.00000000E+00  2.48565402E+00  6.92670185E-01  0.00000000E+00
  2.48565402E+00  6.92670185E-01  0.00000000E+00  2.48565402E+00  6.92670185E-01
  0.00000000E+00  2.48565402E+00  6.92670185E-01  0.00000000E+00  2.48565402E+00
  6.92670185E-01  0.00000000E+00  2.48565402E+00  6.92670185E-01  0.00000000E+00
  2.48565402E+00  6.92670185E-01  0.00000000E+00  2.48565402E+00  6.92670185E-01
  0.00000000E+00  2.48565402E+00  6.92670185E-01  0.00000000E+00  2.48565402E+00
  6.92670185E-01  0.00000000E+00  2.48565402E+00  6.92670185E-01  0.00000000E+00
  2.48565402E+00  6.92670185E-01  0.00000000E+00  2.48565402E+00  6.92670185E-01
  0.00000000E+00  2.48565402E+00  6.92670185E-01  0.00000000E+00 -1.64876280E-17
  1.73703761E+00  0.00000000E+00 -1.64876280E-17  1.73703761E+00  0.00000000E+00
 -1.64876280E-17  1.73703761E+00  0.00000000E+00 -1.64876280E-17  1.73703761E+00
  0.00000000E+00 -1.64876280E-17  1.73703761E+00  0.00000000E+00 -1.64876280E-17
  1.73703761E+00  0.00000000E+00 -1.64876280E-17  1.73703761E+00  0.00000000E+00
 -1.64876280E-17  1.73703761E+00  0.00000000E+00 -1.64876280E-17  1.73703761E+00
  0.00000000E+00 -1.64876280E-17  1.73703761E+00  0.00000000E+00 -1.64876280E-17
  1.73703761E+00  0.00000000E+00 -1.64876280E-17  1.73703761E+00  0.00000000E+00
 -1.64876280E-17  1.73703761E+00  0.00000000E+00 -1.64876280E-17  1.73703761E+00
  0.00000000E+00 -1.87513202E+00 -7.83238410E-02  0.00000000E+00 -1.87513202E+00
 -7.83238410E-02  0.00000000E+00 -1.87513202E+00 -7.83238410E-02  0.00000000E+00
 -1.87513202E+00 -7.83238410E-02  0.00000000E+00 -1.87513202E+00 -7.83238410E-02
  0.00000000E+00 -1.87513202E+00 -7.83238410E-02  0.00000000E+00 -1.87513202E+00
 -7.83238410E-02  0.00000000E+00 -1.87513202E+00 -7.83238410E-02  0.00000000E+00
 -1.87513202E+00 -7.83238410E-02  0.00000000E+00 -1.87513202E+00 -7.83238410E-02
  0.00000000E+00 -1.87513202E+00 -7.83238410E-02  0.00000000E+00 -1.87513202E+00
 -7.83238410E-02  0.00000000E+00 -1.87513202E+00 -7.83238410E-02  0.00000000E+00
 -1.87513202E+00 -7.83238410E-02  0.00000000E+00 -1.10661228E+00 -2.22021451E+00
  0.00000000E+00 -1.10661228E+00 -2.22021451E+00  0.00000000E+00 -1.10661228E+00
 -2.22021451E+00  0.00000000E+00 -1.10661228E+00 -2.22021451E+00  0.00000000E+00
 -1.10661228E+00 -2.22021451E+00  0.00000000E+00 -1.10661228E+00 -2.22021451E+00
  0.00000000E+00 -1.10661228E+00 -2.22021451E+00  0.00000000E+00 -1.10661228E+00
 -2.22021451E+00  0.00000000E+00 -1.10661228E+00 -2.22021451E+00  0.00000000E+00
 -1.10661228E+00 -2.22021451E+00  0.00000000E+00 -1.10661228E+00 -2.22021451E+00
  0.00000000E+00 -1.10661228E+00 -2.22021451E+00  0.00000000E+00 -1.10661228E+00
 -2.22021451E+00  0.00000000E+00 -1.10661228E+00 -2.22021451E+00  0.00000000E+00
Num ILSW                                   I              100
ILSW                                       I   N=         100
           0           0           0           0           2           0
           0           0           0           0           0          -1
           5           0           0           0           2           0
           0           0           0           0           1           0
           1           0           0           0           0           0
           0           0      100000           0          -1           0
           0           0           0           0           0           0
           0           0           0           1           1           0
           0 -2000000000           1           0           0           0
           0           0           4          52           0           0
           0           0           0           0           0           0
           0           0           0           5           4           1
           0           0           0           0           0           0
           0           0           0           0           0           0
           0           0           0           0           0           0
           0           0           0           0           0           0
           0           0           0           0
Num RLSW                                   I               52
RLSW                                       R   N=          52
  1.00000000E+00  1.00000000E+00  1.00000000E+00  1.00000000E+00  1.00000000E+00
  0.00000000E+00  0.00000000E+00  1.00000000E+00  0.00000000E+00  0.00000000E+00
  0.00000000E+00  0.00000000E+00  1.00000000E+00  0.00000000E+00  0.00000000E+00
  0.00000000E+00  0.00000000E+00  1.00000000E+00  0.00000000E+00  0.00000000E+00
  0.00000000E+00  0.00000000E+00  1.00000000E+00  0.00000000E+00  0.00000000E+00
  0.00000000E+00  0.00000000E+00  1.00000000E+00  0.00000000E+00  0.00000000E+00
  0.00000000E+00  0.00000000E+00  1.00000000E+00  0.00000000E+00  0.00000000E+00
  0.00000000E+00  0.00000000E+00  0.00000000E+00  1.00000000E+00  1.00000000E+00
  0.00000000E+00  1.00000000E+00  0.00000000E+00  0.00000000E+00  0.00000000E+00
  0.00000000E+00  0.00000000E+00  0.00000000E+00  0.00000000E+00  0.00000000E+00
  0.00000000E+00  0.00000000E+00
MxBond                                     I                2
NBond                                      I   N=           5
           1           2           2           2           1
IBond                                      I   N=          10
           2           0           1           3           2           4
           3           5           4           0
RBond                                      R   N=          10
  1.00000000E+00  0.00000000E+00  1.00000000E+00  1.00000000E+00  1.00000000E+00
  1.00000000E+00  1.00000000E+00  2.00000000E+00  2.00000000E+00  0.00000000E+00
Virial Ratio                               R      2.002368565574876E+00
SCF Energy                                 R     -2.795047041425970E+02
MP2 Energy                                 R     -2.804551341857546E+02
Total Energy                               R     -2.804551341857546E+02
Post-SCF wavefunction norm                 R      1.584664821596663E+00
RMS Force                                  R      4.172629530223937E-03
RMS Density                                R      5.049962372053836E-09
NImag                                      I                0
Job Status                                 I                1
Nuclear derivative order                   I                2
External E-field                           R   N=          35
  0.00000000E+00  0.00000000E+00  0.00000000E+00  0.00000000E+00  0.00000000E+00
  0.00000000E+00  0.00000000E+00  0.00000000E+00  0.00000000E+00  0.00000000E+00
  0.00000000E+00  0.00000000E+00  0.00000000E+00  0.00000000E+00  0.00000000E+00
  0.00000000E+00  0.00000000E+00  0.00000000E+00  0.00000000E+00  0.00000000E+00
  0.00000000E+00  0.00000000E+00  0.00000000E+00  0.00000000E+00  0.00000000E+00
  0.00000000E+00  0.00000000E+00  0.00000000E+00  0.00000000E+00  0.00000000E+00
  0.00000000E+00  0.00000000E+00  0.00000000E+00  0.00000000E+00  0.00000000E+00
IOpCl                                      I                0
IROHF                                      I                0
Alpha Orbital Energies                     R   N=         207
 -2.07219413E+01 -2.06867841E+01 -2.06691138E+01 -1.58275471E+01 -1.63926338E+00
 -1.50280291E+00 -1.29469998E+00 -9.61771379E-01 -8.32747373E-01 -7.56964669E-01
 -7.38619091E-01 -6.37295788E-01 -6.18555471E-01 -6.16196244E-01 -5.06379356E-01
 -4.98106720E-01  3.51265058E-02  5.73489645E-02  9.50517608E-02  1.00321812E-01
  1.19930549E-01  1.22511885E-01  1.49324994E-01  1.52019440E-01  1.77253169E-01
  1.80410515E-01  1.89764838E-01  2.11010622E-01  2.16656570E-01  2.41638539E-01
  2.46182279E-01  2.68783261E-01  3.12614142E-01  3.16886794E-01  3.38065371E-01
  3.42757172E-01  3.46133084E-01  3.92205297E-01  4.49136778E-01  4.88065079E-01
  5.05015981E-01  5.17796751E-01  5.44582376E-01  5.61535937E-01  5.95610507E-01
  6.18636356E-01  6.37392920E-01  6.90995482E-01  7.17284784E-01  7.23908626E-01
  7.41515929E-01  7.64219031E-01  7.67365986E-01  7.95452645E-01  8.05770953E-01
  8.38630717E-01  8.42591886E-01  8.51452281E-01  8.84280676E-01  9.07273031E-01
  9.29877790E-01  9.45887058E-01  9.54218600E-01  1.01802801E+00  1.03249847E+00
  1.06331242E+00  1.06585793E+00  1.09500173E+00  1.14415636E+00  1.15636270E+00
  1.16807976E+00  1.22145024E+00  1.22696678E+00  1.24535695E+00  1.35446852E+00
  1.36090551E+00  1.37039107E+00  1.46823343E+00  1.48477141E+00  1.50462023E+00
  1.54270760E+00  1.59627115E+00  1.59684431E+00  1.60441988E+00  1.62799372E+00
  1.69376663E+00  1.74044017E+00  1.79937466E+00  1.82978338E+00  1.88542655E+00
  1.89501908E+00  1.93069029E+00  1.97831737E+00  1.98932966E+00  2.05431659E+00
  2.12183453E+00  2.12992146E+00  2.16514021E+00  2.18872720E+00  2.24332632E+00
  2.25993786E+00  2.29359052E+00  2.35172296E+00  2.36547440E+00  2.38527269E+00
  2.39909199E+00  2.43245327E+00  2.47035395E+00  2.47875958E+00  2.52993293E+00
  2.53715341E+00  2.54715102E+00  2.55588044E+00  2.61271880E+00  2.62972212E+00
  2.66955658E+00  2.67010713E+00  2.75180562E+00  2.80775426E+00  2.81467101E+00
  2.83935623E+00  2.91791806E+00  2.98236261E+00  3.04319948E+00  3.04948839E+00
  3.11436725E+00  3.11915850E+00  3.17239373E+00  3.21308461E+00  3.30653788E+00
  3.33219843E+00  3.35983587E+00  3.47646416E+00  3.67029057E+00  3.86859119E+00
  3.93110729E+00  4.18413409E+00  4.22134752E+00  4.22261033E+00  4.25248510E+00
  4.36891370E+00  4.49644797E+00  4.52831858E+00  4.54709204E+00  4.59795214E+00
  4.69112040E+00  4.80601830E+00  4.89695090E+00  4.91456101E+00  4.93765030E+00
  5.00024898E+00  5.00619091E+00  5.10487926E+00  5.12655810E+00  5.17914058E+00
  5.24191036E+00  5.25715681E+00  5.31565585E+00  5.34354342E+00  5.35714208E+00
  5.55419418E+00  5.63109023E+00  5.70089321E+00  5.89237875E+00  5.98966586E+00
  6.26349803E+00  6.29421692E+00  6.35924014E+00  6.37531312E+00  6.59692443E+00
  6.65793780E+00  6.65832236E+00  6.68834702E+00  6.72249882E+00  6.80045836E+00
  6.80388295E+00  6.84435805E+00  6.96484684E+00  7.02030530E+00  7.06525448E+00
  7.07799134E+00  7.13400546E+00  7.17041240E+00  7.17120171E+00  7.20041200E+00
  7.23548973E+00  7.24577477E+00  7.26161586E+00  7.34593090E+00  7.38724743E+00
  7.42439979E+00  7.43922981E+00  7.45403137E+00  7.54446009E+00  7.66225229E+00
  7.66358773E+00  7.79040543E+00  7.88062714E+00  7.94832971E+00  8.05463355E+00
  8.30617606E+00  8.49952132E+00  8.64814448E+00  1.35982288E+01  1.46915758E+01
  1.50705948E+01  1.55534354E+01
Alpha MO coefficients                      R   N=       42849
  6.46818899E-05 -1.74559528E-05 -1.14195031E-03  1.09541993E-05 -5.15120178E-05
  4.21667888E-05  0.00000000E+00 -9.08492579E-05 -2.89604116E-04  0.00000000E+00
  1.47583738E-06 -3.56557164E-04  0.00000000E+00  4.20811604E-05  0.00000000E+00
  0.00000000E+00 -2.46621440E-05  1.29679132E-05  2.31325184E-04  0.00000000E+00
  0.00000000E+00 -4.03069465E-05 -2.13005994E-04  2.99509970E-03 -9.35542759E-05
 -1.02750270E-04  3.54974263E-03  2.49745962E-03  1.02747199E-04 -5.31581045E-05
  0.00000000E+00 -7.29585295E-04  2.85402580E-04  0.00000000E+00 -1.97120827E-03
  1.11670085E-03  0.00000000E+00 -5.39889146E-04  3.80683254E-05  0.00000000E+00
  2.04659267E-05  0.00000000E+00  0.00000000E+00 -8.87675680E-06  4.41185643E-05
 -4.43193022E-04  0.00000000E+00  0.00000000E+00  4.27330712E-04 -6.62316940E-04
 -3.62175033E-04  0.00000000E+00  0.00000000E+00  5.42407842E-04 -7.47909970E-04
  0.00000000E+00  7.41043952E-05 -5.24528288E-05  0.00000000E+00  0.00000000E+00
 -2.70590679E-05  1.08004638E-04  0.00000000E+00  2.07209696E-04 -5.10306508E-05
  0.00000000E+00  0.00000000E+00 -1.69792278E-04  3.00387591E-04  9.76906930E-01
 -9.17250331E-03  4.34025930E-02  4.68553472E-04 -2.22456842E-03  4.42046405E-04
 -2.15458052E-03  0.00000000E+00 -3.10456596E-04  2.26020813E-03  0.00000000E+00
 -2.31016221E-03 -4.81144100E-04  0.00000000E+00 -2.24063985E-04  1.00150627E-04
  0.00000000E+00  6.74638948E-06  0.00000000E+00  0.00000000E+00 -4.06640358E-06
  3.70473215E-05  8.27805875E-04  0.00000000E+00  0.00000000E+00 -4.75251984E-04
 -1.73587907E-04 -1.38692354E-04  0.00000000E+00  0.00000000E+00 -5.54538249E-04
  3.55127927E-04  0.00000000E+00 -6.84942935E-06 -7.95808246E-05  0.00000000E+00
  0.00000000E+00 -9.10806002E-06  4.83497261E-05  0.00000000E+00  9.23630171E-05
  8.72446175E-07  0.00000000E+00  0.00000000E+00 -3.35238630E-04  3.81627913E-04
  1.06371610E-04  4.69332122E-04 -3.24103944E-04 -7.68823775E-04  3.75541001E-04
 -4.45959515E-05 -1.00202252E-04  0.00000000E+00  7.03853733E-04  1.10181910E-03
  0.00000000E+00 -7.46158446E-04 -6.52680617E-04  0.00000000E+00  1.96665697E-04
  2.08382406E-04  0.00000000E+00 -5.29537990E-05  0.00000000E+00  0.00000000E+00
  1.90685239E-05  9.26095292E-05 -4.18088783E-04  0.00000000E+00  0.00000000E+00
  3.63428065E-05  1.08251887E-03  2.30004397E-05  0.00000000E+00  0.00000000E+00
 -3.18317674E-04  3.26905002E-05  0.00000000E+00 -7.87968558E-05 -1.13621393E-04
  0.00000000E+00  0.00000000E+00 -9.72657441E-05  1.07697506E-04  0.00000000E+00
 -1.24922341E-04  4.46065689E-05  0.00000000E+00  0.00000000E+00  1.19743781E-05
  5.22363027E-04 -6.45533359E-04  4.10688929E-05 -6.78277500E-05  1.86397990E-04
 -1.96650190E-04 -2.94922991E-05 -4.11130811E-05  0.00000000E+00  1.69720831E-04
  2.45240918E-04  0.00000000E+00  5.43581145E-04  3.01092855E-04  0.00000000E+00
 -2.13034132E-04 -6.50996346E-05  0.00000000E+00 -1.25464546E-05  0.00000000E+00
  0.00000000E+00  3.71398848E-06  1.40817787E-05 -2.96125010E-06  0.00000000E+00
  0.00000000E+00 -1.63216944E-04  1.83057246E-05 -1.97087762E-05  0.00000000E+00
  0.00000000E+00 -1.63811607E-04 -3.34008221E-05  0.00000000E+00 -6.57081936E-06
 -9.48527974E-06  0.00000000E+00  0.00000000E+00 -2.25448979E-05  8.81420142E-06
  0.00000000E+00  3.94060696E-05  6.05214038E-05  0.00000000E+00  0.00000000E+00
  1.53216653E-04 -1.04877984E-04  4.06243950E-05  6.47591539E-05 -1.36627067E-04
 -3.37331465E-05  1.79524616E-05  1.13235147E-05  0.00000000E+00  2.40886148E-04
  6.67542332E-05  0.00000000E+00  1.29981195E-04  2.28985022E-05  0.00000000E+00
  1.30177833E-05  0.00000000E+00  0.00000000E+00 -1.31208990E-05  1.60673284E-05
  2.46457105E-05  0.00000000E+00  0.00000000E+00 -1.04197926E-04  6.25552453E-05
 -2.82798421E-04  2.84429092E-05 -1.74406206E-05 -5.64743434E-04  1.68908979E-04
  8.49689855E-06  1.33261901E-05  0.00000000E+00 -5.99852849E-06 -3.88413362E-05
  0.00000000E+00  2.02991003E-04  1.33918403E-04  0.00000000E+00 -4.77379474E-05
  4.68218753E-05  0.00000000E+00 -1.46095035E-06  0.00000000E+00  0.00000000E+00
 -8.56346127E-06 -1.17644549E-05  2.05119801E-05  0.00000000E+00  0.00000000E+00
  5.42588501E-05  1.07305742E-04  6.12031183E-05  0.00000000E+00  0.00000000E+00
 -3.80440337E-05 -8.49877598E-05  0.00000000E+00  8.11994001E-06  9.90685691E-06
  0.00000000E+00  0.00000000E+00 -1.42841851E-06 -2.47876459E-05  0.00000000E+00
 -1.42210453E-05 -3.50455257E-05  0.00000000E+00  0.00000000E+00 -4.13135146E-06
 -1.73586845E-05  6.72950514E-04  2.44971865E-05 -2.05239684E-05  2.51910141E-04
 -4.46574281E-04  1.52714693E-05  2.77976271E-05  0.00000000E+00 -5.99652216E-05
 -1.54142401E-04  0.00000000E+00  2.10107639E-04 -2.09883350E-04  0.00000000E+00
 -1.49751450E-04  1.50575626E-04  0.00000000E+00 -4.18025582E-06  0.00000000E+00
  0.00000000E+00 -2.70301074E-05 -1.02803161E-05 -4.90926910E-05  0.00000000E+00
  0.00000000E+00  6.27424287E-05  1.21063253E-04 -5.75004698E-05  0.00000000E+00
  0.00000000E+00  1.84853711E-05  1.40671565E-05  0.00000000E+00  2.74478713E-06
  3.76299244E-06  0.00000000E+00  0.00000000E+00 -8.06427070E-06 -6.52756489E-07
  0.00000000E+00  2.18022587E-06 -2.59570670E-05  0.00000000E+00  0.00000000E+00
  1.02761251E-04 -1.44460955E-04  2.33674869E-04  1.33032801E-03 -1.82905249E-04
 -4.75319467E-04  9.89197650E-04  5.61065978E-05 -5.09801162E-05  0.00000000E+00
  5.68567247E-04 -2.08873451E-03  0.00000000E+00  1.59017228E-04  4.56723253E-04
  0.00000000E+00  1.97639212E-04 -3.15854004E-04  0.00000000E+00 -1.27770029E-04
  0.00000000E+00  0.00000000E+00 -2.01725800E-04 -1.58131676E-04 -4.85016902E-04
  0.00000000E+00  0.00000000E+00 -6.56936897E-04 -9.30067083E-04 -6.02437643E-05
  0.00000000E+00  0.00000000E+00  3.05077208E-05  1.11622057E-04  0.00000000E+00
  4.45937643E-06  4.96571115E-05  0.00000000E+00  0.00000000E+00 -4.09249105E-05
  6.34225715E-06  0.00000000E+00 -1.38200628E-04  1.58938737E-04  0.00000000E+00
  0.00000000E+00 -3.38204070E-04 -3.62863329E-05  9.76661559E-01 -9.88820153E-03
  4.35516625E-02  3.56098318E-03 -9.53195965E-04 -4.42524538E-04  2.12324727E-03
  0.00000000E+00  5.20550945E-04 -2.53104158E-03  0.00000000E+00 -4.54921695E-05
  7.84731393E-04  0.00000000E+00  1.09610011E-04 -7.15144325E-05  0.00000000E+00
 -1.87264724E-04  0.00000000E+00  0.00000000E+00 -6.70123357E-05 -3.78115460E-05
  4.12636231E-04  0.00000000E+00  0.00000000E+00  8.67823915E-04  4.92892555E-04
 -2.12759570E-04  0.00000000E+00  0.00000000E+00 -1.44956153E-04 -3.54742710E-05
  0.00000000E+00 -6.31677733E-06  7.45722635E-05  0.00000000E+00  0.00000000E+00
 -3.39678993E-05  1.29310894E-05  0.00000000E+00 -8.79498763E-05  8.54703218E-05
  0.00000000E+00  0.00000000E+00 -1.65276415E-04  2.03999554E-04  3.74890207E-04
  1.98725465E-03  1.36209567E-03 -1.76446325E-05  5.05531046E-05  2.67614683E-04
  0.00000000E+00  3.85669082E-04  1.02538792E-03  0.00000000E+00 -1.25030409E-04
  2.31588675E-04  0.00000000E+00 -2.33750172E-05  0.00000000E+00  0.00000000E+00
  3.27985319E-05 -2.87984923E-05 -2.16670223E-04  0.00000000E+00  0.00000000E+00
 -3.49716567E-04  4.07930244E-04  9.76834668E-01 -9.18756042E-03  4.34653155E-02
  1.35157088E-04 -1.89223955E-03 -2.04540193E-03 -8.30892762E-04  0.00000000E+00
  2.08272227E-03  7.66447655E-04  0.00000000E+00 -3.99039166E-04  6.44157565E-04
  0.00000000E+00  2.21189339E-04 -2.98911699E-04  0.00000000E+00  3.07884827E-05
  0.00000000E+00  0.00000000E+00 -7.47517678E-05  6.35926695E-05  7.65787325E-04
  0.00000000E+00  0.00000000E+00 -2.10133824E-04  3.55893363E-04 -2.37880455E-04
  0.00000000E+00  0.00000000E+00  3.33560018E-04 -2.71993877E-08  0.00000000E+00
 -8.05753076E-05  1.99185543E-06  0.00000000E+00  0.00000000E+00  1.59814642E-05