 Entering Gaussian System, Link 0=g16
 Input=hoono_a1_101p4086.gjf
 Output=hoono_a1_101p4086.log
 Initial command:
 /sw/contrib/gaussian/g16/B01/g16/l1.exe "/scr/Gau-66864.inp" -scrdir="/scr/"
 Entering Link 1 = /sw/contrib/gaussian/g16/B01/g16/l1.exe PID=     66865.
  
 Copyright (c) 1988-2017, Gaussian, Inc.  All Rights Reserved.
  
 This is part of the Gaussian(R) 16 program.  It is based on
 the Gaussian(R) 09 system (copyright 2009, Gaussian, Inc.),
 the Gaussian(R) 03 system (copyright 2003, Gaussian, Inc.),
 the Gaussian(R) 98 system (copyright 1998, Gaussian, Inc.),
 the Gaussian(R) 94 system (copyright 1995, Gaussian, Inc.),
 the Gaussian 92(TM) system (copyright 1992, Gaussian, Inc.),
 the Gaussian 90(TM) system (copyright 1990, Gaussian, Inc.),
 the Gaussian 88(TM) system (copyright 1988, Gaussian, Inc.),
 the Gaussian 86(TM) system (copyright 1986, Carnegie Mellon
 University), and the Gaussian 82(TM) system (copyright 1983,
 Carnegie Mellon University). Gaussian is a federally registered
 trademark of Gaussian, Inc.
  
 This software contains proprietary and confidential information,
 including trade secrets, belonging to Gaussian, Inc.
  
 This software is provided under written license and may be
 used, copied, transmitted, or stored only in accord with that
 written license.
  
 The following legend is applicable only to US Government
 contracts under FAR:
  
                    RESTRICTED RIGHTS LEGEND
  
 Use, reproduction and disclosure by the US Government is
 subject to restrictions as set forth in subparagraphs (a)
 and (c) of the Commercial Computer Software - Restricted
 Rights clause in FAR 52.227-19.
  
 Gaussian, Inc.
 340 Quinnipiac St., Bldg. 40, Wallingford CT 06492
  
  
 ---------------------------------------------------------------
 Warning -- This program may not be used in any manner that
 competes with the business of Gaussian, Inc. or will provide
 assistance to any competitor of Gaussian, Inc.  The licensee
 of this program is prohibited from giving any competitor of
 Gaussian, Inc. access to this program.  By using this program,
 the user acknowledges that Gaussian, Inc. is engaged in the
 business of creating and licensing software in the field of
 computational chemistry and represents and warrants to the
 licensee that it is not a competitor of Gaussian, Inc. and that
 it will not use this program in any manner prohibited above.
 ---------------------------------------------------------------
  

 Cite this work as:
 Gaussian 16, Revision B.01,
 M. J. Frisch, G. W. Trucks, H. B. Schlegel, G. E. Scuseria, 
 M. A. Robb, J. R. Cheeseman, G. Scalmani, V. Barone, 
 G. A. Petersson, H. Nakatsuji, X. Li, M. Caricato, A. V. Marenich, 
 J. Bloino, B. G. Janesko, R. Gomperts, B. Mennucci, H. P. Hratchian, 
 J. V. Ortiz, A. F. Izmaylov, J. L. Sonnenberg, D. Williams-Young, 
 F. Ding, F. Lipparini, F. Egidi, J. Goings, B. Peng, A. Petrone, 
 T. Henderson, D. Ranasinghe, V. G. Zakrzewski, J. Gao, N. Rega, 
 G. Zheng, W. Liang, M. Hada, M. Ehara, K. Toyota, R. Fukuda, 
 J. Hasegawa, M. Ishida, T. Nakajima, Y. Honda, O. Kitao, H. Nakai, 
 T. Vreven, K. Throssell, J. A. Montgomery, Jr., J. E. Peralta, 
 F. Ogliaro, M. J. Bearpark, J. J. Heyd, E. N. Brothers, K. N. Kudin, 
 V. N. Staroverov, T. A. Keith, R. Kobayashi, J. Normand, 
 K. Raghavachari, A. P. Rendell, J. C. Burant, S. S. Iyengar, 
 J. Tomasi, M. Cossi, J. M. Millam, M. Klene, C. Adamo, R. Cammi, 
 J. W. Ochterski, R. L. Martin, K. Morokuma, O. Farkas, 
 J. B. Foresman, and D. J. Fox, Gaussian, Inc., Wallingford CT, 2016.
 
 ******************************************
 Gaussian 16:  ES64L-G16RevB.01 20-Dec-2017
                 6-Mar-2022 
 ******************************************
 %nproc=28
 Will use up to   28 processors via shared memory.
 %mem=120GB
 %chk=hoono_a1_101p4086.chk
 ---------------------------------------
 #p freq mp2/aug-cc-pvtz density=current
 ---------------------------------------
 1/10=4,30=1,38=1/1,3;
 2/12=2,17=6,18=5,40=1/2;
 3/5=16,6=1,7=10,11=9,25=1,30=1,71=2,140=1/1,2,3;
 4//1;
 5/5=2,38=5,98=1/2;
 8/6=3,8=1,10=1,19=11,30=-1/1;
 9/15=3,16=-3/6;
 11/6=1,8=1,15=11,17=12,24=-1,27=1,28=-2,29=300,32=6,42=3/1,2,10;
 10/6=2,21=1/2;
 8/6=4,8=1,10=1,19=11,30=-1/11,4;
 10/5=1,20=4/2;
 11/12=2,14=11,16=1,17=2,28=-2,42=3,76=2/2,10,12;
 6/7=2,8=2,9=2,10=2,22=-1/1;
 7/8=1,10=1,12=2,25=1,44=2/1,2,3,16;
 1/10=4,30=1/3;
 99//99;
 Leave Link    1 at Sun Mar  6 19:18:49 2022, MaxMem= 16106127360 cpu:               1.7 elap:               0.1
 (Enter /sw/contrib/gaussian/g16/B01/g16/l101.exe)
 -----
 title
 -----
 Symbolic Z-matrix:
 Charge =  0 Multiplicity = 1
 H
 O                    1    r1
 O                    2    r2       1    a1
 N                    3    r3       2    a2       1    d1       0
 O                    4    r4       3    a3       2    d2       0
       Variables:
  r1                    0.98538                  
  r2                    1.42674                  
  r3                    1.38111                  
  r4                    1.19479                  
  a1                  101.40867                  
  a2                  113.13777                  
  a3                  114.33392                  
  d1                    0.                       
  d2                    0.                       
 
 ITRead=  0  0  0  0  0
 MicOpt= -1 -1 -1 -1 -1
 NAtoms=      5 NQM=        5 NQMF=       0 NMMI=      0 NMMIF=      0
                NMic=       0 NMicF=      0.
                    Isotopes and Nuclear Properties:
 (Nuclear quadrupole moments (NQMom) in fm**2, nuclear magnetic moments (NMagM)
  in nuclear magnetons)

  Atom         1           2           3           4           5
 IAtWgt=           1          16          16          14          16
 AtmWgt=   1.0078250  15.9949146  15.9949146  14.0030740  15.9949146
 NucSpn=           1           0           0           2           0
 AtZEff=  -0.0000000  -0.0000000  -0.0000000  -0.0000000  -0.0000000
 NQMom=    0.0000000   0.0000000   0.0000000   2.0440000   0.0000000
 NMagM=    2.7928460   0.0000000   0.0000000   0.4037610   0.0000000
 AtZNuc=   1.0000000   8.0000000   8.0000000   7.0000000   8.0000000
 Leave Link  101 at Sun Mar  6 19:18:49 2022, MaxMem= 16106127360 cpu:               3.5 elap:               0.1
 (Enter /sw/contrib/gaussian/g16/B01/g16/l103.exe)

 GradGradGradGradGradGradGradGradGradGradGradGradGradGradGradGradGradGrad
 Berny optimization.
 Initialization pass.
                       ----------------------------
                       !    Initial Parameters    !
                       ! (Angstroms and Degrees)  !
 ----------------------                            ----------------------
 !      Name          Value   Derivative information (Atomic Units)     !
 ------------------------------------------------------------------------
 !       r1          0.9854   calculate D2E/DX2 analytically            !
 !       r2          1.4267   calculate D2E/DX2 analytically            !
 !       r3          1.3811   calculate D2E/DX2 analytically            !
 !       r4          1.1948   calculate D2E/DX2 analytically            !
 !       a1        101.4087   calculate D2E/DX2 analytically            !
 !       a2        113.1378   calculate D2E/DX2 analytically            !
 !       a3        114.3339   calculate D2E/DX2 analytically            !
 !       d1          0.0      calculate D2E/DX2 analytically            !
 !       d2          0.0      calculate D2E/DX2 analytically            !
 ------------------------------------------------------------------------
 Trust Radius=3.00D-01 FncErr=1.00D-07 GrdErr=1.00D-07 EigMax=2.50D+02 EigMin=1.00D-04
 Number of steps in this run=      2 maximum allowed number of steps=      2.
 GradGradGradGradGradGradGradGradGradGradGradGradGradGradGradGradGradGrad

 Leave Link  103 at Sun Mar  6 19:18:49 2022, MaxMem= 16106127360 cpu:               1.0 elap:               0.1
 (Enter /sw/contrib/gaussian/g16/B01/g16/l202.exe)
                          Input orientation:                          
 ---------------------------------------------------------------------
 Center     Atomic      Atomic             Coordinates (Angstroms)
 Number     Number       Type             X           Y           Z
 ---------------------------------------------------------------------
      1          1           0        0.000000    0.000000    0.000000
      2          8           0        0.000000    0.000000    0.985377
      3          8           0        1.398546    0.000000    1.267593
      4          7           0        2.181736    0.000000    0.130021
      5          8           0        1.564238    0.000000   -0.892826
 ---------------------------------------------------------------------
                    Distance matrix (angstroms):
                    1          2          3          4          5
     1  H    0.000000
     2  O    0.985377   0.000000
     3  O    1.887518   1.426737   0.000000
     4  N    2.185607   2.343418   1.381108   0.000000
     5  O    1.801104   2.444276   2.166763   1.194788   0.000000
 Stoichiometry    HNO3
 Framework group  CS[SG(HNO3)]
 Deg. of freedom     7
 Full point group                 CS      NOp   2
 Largest Abelian subgroup         CS      NOp   2
 Largest concise Abelian subgroup C1      NOp   1
                         Standard orientation:                         
 ---------------------------------------------------------------------
 Center     Atomic      Atomic             Coordinates (Angstroms)
 Number     Number       Type             X           Y           Z
 ---------------------------------------------------------------------
      1          1           0        1.121538   -0.601109   -0.000000
      2          8           0        1.315585    0.364973    0.000000
      3          8           0       -0.000000    0.917073    0.000000
      4          7           0       -0.991872   -0.043994   -0.000000
      5          8           0       -0.587889   -1.168413   -0.000000
 ---------------------------------------------------------------------
 Rotational constants (GHZ):          21.3295235           8.1060203           5.8737678
 Leave Link  202 at Sun Mar  6 19:18:49 2022, MaxMem= 16106127360 cpu:               3.1 elap:               0.1
 (Enter /sw/contrib/gaussian/g16/B01/g16/l301.exe)
 Standard basis: Aug-CC-pVTZ (5D, 7F)
 Ernie: Thresh=  0.10000D-02 Tol=  0.10000D-05 Strict=F.
 Ernie:  12 primitive shells out of 131 were deleted.
 There are   166 symmetry adapted cartesian basis functions of A'  symmetry.
 There are    79 symmetry adapted cartesian basis functions of A"  symmetry.
 There are   136 symmetry adapted basis functions of A'  symmetry.
 There are    71 symmetry adapted basis functions of A"  symmetry.
   207 basis functions,   315 primitive gaussians,   245 cartesian basis functions
    16 alpha electrons       16 beta electrons
       nuclear repulsion energy       122.7130571779 Hartrees.
 IExCor=    0 DFT=F Ex=HF Corr=None ExCW=0 ScaHFX=  1.000000
 ScaDFX=  1.000000  1.000000  1.000000  1.000000 ScalE2=  1.000000  1.000000
 IRadAn=      5 IRanWt=     -1 IRanGd=            0 ICorTp=0 IEmpDi=  4
 NAtoms=    5 NActive=    5 NUniq=    5 SFac= 1.00D+00 NAtFMM=   60 NAOKFM=F Big=F
 Integral buffers will be    131072 words long.
 Raffenetti 1 integral format.
 Two-electron integral symmetry is turned on.
 Leave Link  301 at Sun Mar  6 19:18:49 2022, MaxMem= 16106127360 cpu:               1.7 elap:               0.1
 (Enter /sw/contrib/gaussian/g16/B01/g16/l302.exe)
 NPDir=0 NMtPBC=     1 NCelOv=     1 NCel=       1 NClECP=     1 NCelD=      1
         NCelK=      1 NCelE2=     1 NClLst=     1 CellRange=     0.0.
 One-electron integrals computed using PRISM.
 One-electron integral symmetry used in STVInt
 NBasis=   207 RedAO= T EigKep=  1.31D-04  NBF=   136    71
 NBsUse=   207 1.00D-06 EigRej= -1.00D+00 NBFU=   136    71
 Leave Link  302 at Sun Mar  6 19:18:50 2022, MaxMem= 16106127360 cpu:               7.2 elap:               0.3
 (Enter /sw/contrib/gaussian/g16/B01/g16/l303.exe)
 DipDrv:  MaxL=1.
 Leave Link  303 at Sun Mar  6 19:18:50 2022, MaxMem= 16106127360 cpu:               1.4 elap:               0.1
 (Enter /sw/contrib/gaussian/g16/B01/g16/l401.exe)
 ExpMin= 2.53D-02 ExpMax= 1.53D+04 ExpMxC= 5.22D+02 IAcc=3 IRadAn=         5 AccDes= 0.00D+00
 Harris functional with IExCor=  205 and IRadAn=       5 diagonalized for initial guess.
 HarFok:  IExCor=  205 AccDes= 0.00D+00 IRadAn=         5 IDoV= 1 UseB2=F ITyADJ=14
 ICtDFT=  3500011 ScaDFX=  1.000000  1.000000  1.000000  1.000000
 FoFCou: FMM=F IPFlag=           0 FMFlag=      100000 FMFlg1=           0
         NFxFlg=           0 DoJE=T BraDBF=F KetDBF=T FulRan=T
         wScrn=  0.000000 ICntrl=       500 IOpCl=  0 I1Cent=   200000004 NGrid=           0
         NMat0=    1 NMatS0=      1 NMatT0=    0 NMatD0=    1 NMtDS0=    0 NMtDT0=    0
 Petite list used in FoFCou.
 Harris En= -279.644990284405    
 JPrj=0 DoOrth=F DoCkMO=F.
 Initial guess orbital symmetries:
       Occupied  (A') (A') (A') (A') (A') (A') (A') (A') (A') (A')
                 (A") (A') (A") (A') (A") (A')
       Virtual   (A") (A') (A') (A') (A') (A") (A') (A') (A') (A')
                 (A") (A') (A") (A') (A') (A") (A') (A') (A") (A')
                 (A') (A') (A') (A') (A") (A') (A') (A') (A") (A')
                 (A') (A") (A") (A') (A') (A") (A') (A") (A') (A")
                 (A') (A") (A') (A") (A') (A') (A') (A') (A") (A')
                 (A') (A") (A') (A") (A') (A") (A') (A') (A') (A")
                 (A') (A') (A") (A') (A') (A') (A") (A") (A') (A')
                 (A") (A') (A") (A") (A') (A') (A") (A') (A') (A')
                 (A") (A') (A') (A") (A') (A") (A") (A') (A') (A')
                 (A') (A") (A') (A") (A') (A') (A") (A') (A") (A')
                 (A") (A') (A') (A") (A") (A') (A') (A') (A") (A')
                 (A") (A') (A') (A') (A") (A') (A') (A') (A") (A')
                 (A") (A') (A') (A") (A") (A") (A") (A') (A') (A')
                 (A') (A') (A') (A") (A') (A") (A') (A") (A') (A')
                 (A") (A") (A') (A') (A') (A") (A') (A') (A') (A")
                 (A') (A') (A') (A") (A') (A") (A") (A') (A") (A')
                 (A') (A") (A") (A') (A") (A') (A') (A") (A") (A')
                 (A") (A") (A") (A') (A') (A") (A') (A') (A') (A")
                 (A') (A') (A') (A') (A') (A') (A') (A') (A') (A')
                 (A')
 The electronic state of the initial guess is 1-A'.
 Leave Link  401 at Sun Mar  6 19:18:50 2022, MaxMem= 16106127360 cpu:               6.3 elap:               0.3
 (Enter /sw/contrib/gaussian/g16/B01/g16/l502.exe)
 Keep R1 ints in memory in symmetry-blocked form, NReq=348887737.
 FoFCou: FMM=F IPFlag=           0 FMFlag=           0 FMFlg1=           0
         NFxFlg=           0 DoJE=F BraDBF=F KetDBF=F FulRan=T
         wScrn=  0.000000 ICntrl=       600 IOpCl=  0 I1Cent=           0 NGrid=           0
         NMat0=    1 NMatS0=  21528 NMatT0=    0 NMatD0=    1 NMtDS0=    0 NMtDT0=    0
 Petite list used in FoFCou.
 Closed shell SCF:
 Using DIIS extrapolation, IDIIS=  1040.
 NGot= 16106127360 LenX= 15988850015 LenY= 15988789549
 Requested convergence on RMS density matrix=1.00D-08 within 128 cycles.
 Requested convergence on MAX density matrix=1.00D-06.
 Requested convergence on             energy=1.00D-06.
 No special actions if energy rises.

 Cycle   1  Pass 1  IDiag  1:
 E= -279.364267263908    
 DIIS: error= 2.75D-02 at cycle   1 NSaved=   1.
 NSaved= 1 IEnMin= 1 EnMin= -279.364267263908     IErMin= 1 ErrMin= 2.75D-02
 ErrMax= 2.75D-02  0.00D+00 EMaxC= 1.00D-01 BMatC= 4.51D-01 BMatP= 4.51D-01
 IDIUse=3 WtCom= 7.25D-01 WtEn= 2.75D-01
 Coeff-Com:  0.100D+01
 Coeff-En:   0.100D+01
 Coeff:      0.100D+01
 Gap=     0.499 Goal=   None    Shift=    0.000
 GapD=    0.499 DampG=2.000 DampE=0.500 DampFc=1.0000 IDamp=-1.
 RMSDP=1.68D-03 MaxDP=8.76D-02              OVMax= 1.23D-01

 Cycle   2  Pass 1  IDiag  1:
 E= -279.446205854516     Delta-E=       -0.081938590608 Rises=F Damp=F
 DIIS: error= 1.92D-02 at cycle   2 NSaved=   2.
 NSaved= 2 IEnMin= 2 EnMin= -279.446205854516     IErMin= 2 ErrMin= 1.92D-02
 ErrMax= 1.92D-02  0.00D+00 EMaxC= 1.00D-01 BMatC= 8.63D-02 BMatP= 4.51D-01
 IDIUse=3 WtCom= 8.08D-01 WtEn= 1.92D-01
 Coeff-Com:  0.219D+00 0.781D+00
 Coeff-En:   0.789D-01 0.921D+00
 Coeff:      0.192D+00 0.808D+00
 Gap=     0.561 Goal=   None    Shift=    0.000
 RMSDP=9.67D-04 MaxDP=3.65D-02 DE=-8.19D-02 OVMax= 9.13D-02

 Cycle   3  Pass 1  IDiag  1:
 E= -279.484167583075     Delta-E=       -0.037961728558 Rises=F Damp=F
 DIIS: error= 1.10D-02 at cycle   3 NSaved=   3.
 NSaved= 3 IEnMin= 3 EnMin= -279.484167583075     IErMin= 3 ErrMin= 1.10D-02
 ErrMax= 1.10D-02  0.00D+00 EMaxC= 1.00D-01 BMatC= 3.09D-02 BMatP= 8.63D-02
 IDIUse=3 WtCom= 8.90D-01 WtEn= 1.10D-01
 Coeff-Com: -0.347D-01 0.364D+00 0.671D+00
 Coeff-En:   0.000D+00 0.217D+00 0.783D+00
 Coeff:     -0.309D-01 0.348D+00 0.683D+00
 Gap=     0.541 Goal=   None    Shift=    0.000
 RMSDP=4.10D-04 MaxDP=1.58D-02 DE=-3.80D-02 OVMax= 3.91D-02

 Cycle   4  Pass 1  IDiag  1:
 E= -279.505297203401     Delta-E=       -0.021129620326 Rises=F Damp=F
 DIIS: error= 1.61D-03 at cycle   4 NSaved=   4.
 NSaved= 4 IEnMin= 4 EnMin= -279.505297203401     IErMin= 4 ErrMin= 1.61D-03
 ErrMax= 1.61D-03  0.00D+00 EMaxC= 1.00D-01 BMatC= 5.94D-04 BMatP= 3.09D-02
 IDIUse=3 WtCom= 9.84D-01 WtEn= 1.61D-02
 Coeff-Com: -0.119D-01 0.463D-01 0.153D+00 0.813D+00
 Coeff-En:   0.000D+00 0.000D+00 0.000D+00 0.100D+01
 Coeff:     -0.117D-01 0.455D-01 0.150D+00 0.816D+00
 Gap=     0.528 Goal=   None    Shift=    0.000
 RMSDP=9.88D-05 MaxDP=2.29D-03 DE=-2.11D-02 OVMax= 1.17D-02

 Cycle   5  Pass 1  IDiag  1:
 E= -279.506105274770     Delta-E=       -0.000808071369 Rises=F Damp=F
 DIIS: error= 1.08D-03 at cycle   5 NSaved=   5.
 NSaved= 5 IEnMin= 5 EnMin= -279.506105274770     IErMin= 5 ErrMin= 1.08D-03
 ErrMax= 1.08D-03  0.00D+00 EMaxC= 1.00D-01 BMatC= 1.02D-04 BMatP= 5.94D-04
 IDIUse=3 WtCom= 9.89D-01 WtEn= 1.08D-02
 Coeff-Com:  0.537D-02-0.656D-01-0.110D+00 0.596D-01 0.111D+01
 Coeff-En:   0.000D+00 0.000D+00 0.000D+00 0.000D+00 0.100D+01
 Coeff:      0.531D-02-0.649D-01-0.109D+00 0.590D-01 0.111D+01
 Gap=     0.532 Goal=   None    Shift=    0.000
 RMSDP=7.95D-05 MaxDP=2.11D-03 DE=-8.08D-04 OVMax= 1.29D-02

 Cycle   6  Pass 1  IDiag  1:
 E= -279.506465699605     Delta-E=       -0.000360424835 Rises=F Damp=F
 DIIS: error= 3.26D-04 at cycle   6 NSaved=   6.
 NSaved= 6 IEnMin= 6 EnMin= -279.506465699605     IErMin= 6 ErrMin= 3.26D-04
 ErrMax= 3.26D-04  0.00D+00 EMaxC= 1.00D-01 BMatC= 2.40D-05 BMatP= 1.02D-04
 IDIUse=3 WtCom= 9.97D-01 WtEn= 3.26D-03
 Coeff-Com:  0.188D-02-0.705D-02-0.178D-01-0.183D+00 0.146D-01 0.119D+01
 Coeff-En:   0.000D+00 0.000D+00 0.000D+00 0.000D+00 0.000D+00 0.100D+01
 Coeff:      0.187D-02-0.703D-02-0.177D-01-0.183D+00 0.146D-01 0.119D+01
 Gap=     0.532 Goal=   None    Shift=    0.000
 RMSDP=4.65D-05 MaxDP=1.07D-03 DE=-3.60D-04 OVMax= 6.08D-03

 Cycle   7  Pass 1  IDiag  1:
 E= -279.506551147415     Delta-E=       -0.000085447810 Rises=F Damp=F
 DIIS: error= 1.30D-04 at cycle   7 NSaved=   7.
 NSaved= 7 IEnMin= 7 EnMin= -279.506551147415     IErMin= 7 ErrMin= 1.30D-04
 ErrMax= 1.30D-04  0.00D+00 EMaxC= 1.00D-01 BMatC= 3.56D-06 BMatP= 2.40D-05
 IDIUse=3 WtCom= 9.99D-01 WtEn= 1.30D-03
 Coeff-Com: -0.109D-02 0.114D-01 0.250D-01 0.170D-01-0.182D+00-0.153D+00
 Coeff-Com:  0.128D+01
 Coeff-En:   0.000D+00 0.000D+00 0.000D+00 0.000D+00 0.000D+00 0.000D+00
 Coeff-En:   0.100D+01
 Coeff:     -0.109D-02 0.114D-01 0.250D-01 0.170D-01-0.182D+00-0.153D+00
 Coeff:      0.128D+01
 Gap=     0.532 Goal=   None    Shift=    0.000
 RMSDP=1.75D-05 MaxDP=5.11D-04 DE=-8.54D-05 OVMax= 2.33D-03

 Cycle   8  Pass 1  IDiag  1:
 E= -279.506563093182     Delta-E=       -0.000011945767 Rises=F Damp=F
 DIIS: error= 4.71D-05 at cycle   8 NSaved=   8.
 NSaved= 8 IEnMin= 8 EnMin= -279.506563093182     IErMin= 8 ErrMin= 4.71D-05
 ErrMax= 4.71D-05  0.00D+00 EMaxC= 1.00D-01 BMatC= 5.93D-07 BMatP= 3.56D-06
 IDIUse=1 WtCom= 1.00D+00 WtEn= 0.00D+00
 Coeff-Com: -0.557D-03 0.406D-02 0.967D-02 0.250D-01-0.573D-01-0.192D+00
 Coeff-Com:  0.354D+00 0.857D+00
 Coeff:     -0.557D-03 0.406D-02 0.967D-02 0.250D-01-0.573D-01-0.192D+00
 Coeff:      0.354D+00 0.857D+00
 Gap=     0.532 Goal=   None    Shift=    0.000
 RMSDP=5.39D-06 MaxDP=1.52D-04 DE=-1.19D-05 OVMax= 6.42D-04

 Cycle   9  Pass 1  IDiag  1:
 E= -279.506564452308     Delta-E=       -0.000001359126 Rises=F Damp=F
 DIIS: error= 2.46D-05 at cycle   9 NSaved=   9.
 NSaved= 9 IEnMin= 9 EnMin= -279.506564452308     IErMin= 9 ErrMin= 2.46D-05
 ErrMax= 2.46D-05  0.00D+00 EMaxC= 1.00D-01 BMatC= 1.16D-07 BMatP= 5.93D-07
 IDIUse=1 WtCom= 1.00D+00 WtEn= 0.00D+00
 Coeff-Com:  0.240D-03-0.254D-02-0.530D-02-0.562D-02 0.469D-01 0.488D-01
 Coeff-Com: -0.339D+00 0.339D-01 0.122D+01
 Coeff:      0.240D-03-0.254D-02-0.530D-02-0.562D-02 0.469D-01 0.488D-01
 Coeff:     -0.339D+00 0.339D-01 0.122D+01
 Gap=     0.532 Goal=   None    Shift=    0.000
 RMSDP=2.45D-06 MaxDP=6.58D-05 DE=-1.36D-06 OVMax= 2.57D-04

 Cycle  10  Pass 1  IDiag  1:
 E= -279.506564712931     Delta-E=       -0.000000260623 Rises=F Damp=F
 DIIS: error= 5.63D-06 at cycle  10 NSaved=  10.
 NSaved=10 IEnMin=10 EnMin= -279.506564712931     IErMin=10 ErrMin= 5.63D-06
 ErrMax= 5.63D-06  0.00D+00 EMaxC= 1.00D-01 BMatC= 8.19D-09 BMatP= 1.16D-07
 IDIUse=1 WtCom= 1.00D+00 WtEn= 0.00D+00
 Coeff-Com: -0.379D-04 0.489D-03 0.119D-02-0.184D-02-0.109D-01 0.525D-02
 Coeff-Com:  0.726D-01-0.540D-01-0.436D+00 0.142D+01
 Coeff:     -0.379D-04 0.489D-03 0.119D-02-0.184D-02-0.109D-01 0.525D-02
 Coeff:      0.726D-01-0.540D-01-0.436D+00 0.142D+01
 Gap=     0.532 Goal=   None    Shift=    0.000
 RMSDP=6.99D-07 MaxDP=2.54D-05 DE=-2.61D-07 OVMax= 7.51D-05

 Cycle  11  Pass 1  IDiag  1:
 E= -279.506564737488     Delta-E=       -0.000000024557 Rises=F Damp=F
 DIIS: error= 2.18D-06 at cycle  11 NSaved=  11.
 NSaved=11 IEnMin=11 EnMin= -279.506564737488     IErMin=11 ErrMin= 2.18D-06
 ErrMax= 2.18D-06  0.00D+00 EMaxC= 1.00D-01 BMatC= 8.24D-10 BMatP= 8.19D-09
 IDIUse=1 WtCom= 1.00D+00 WtEn= 0.00D+00
 Coeff-Com: -0.160D-04 0.161D-03 0.335D-03 0.899D-03-0.212D-02-0.713D-02
 Coeff-Com:  0.184D-01 0.193D-01-0.467D-01-0.329D+00 0.135D+01
 Coeff:     -0.160D-04 0.161D-03 0.335D-03 0.899D-03-0.212D-02-0.713D-02
 Coeff:      0.184D-01 0.193D-01-0.467D-01-0.329D+00 0.135D+01
 Gap=     0.532 Goal=   None    Shift=    0.000
 RMSDP=2.41D-07 MaxDP=8.96D-06 DE=-2.46D-08 OVMax= 2.83D-05

 Cycle  12  Pass 1  IDiag  1:
 E= -279.506564740441     Delta-E=       -0.000000002953 Rises=F Damp=F
 DIIS: error= 7.14D-07 at cycle  12 NSaved=  12.
 NSaved=12 IEnMin=12 EnMin= -279.506564740441     IErMin=12 ErrMin= 7.14D-07
 ErrMax= 7.14D-07  0.00D+00 EMaxC= 1.00D-01 BMatC= 8.63D-11 BMatP= 8.24D-10
 IDIUse=1 WtCom= 1.00D+00 WtEn= 0.00D+00
 Coeff-Com:  0.256D-05-0.447D-04-0.969D-04 0.135D-03 0.113D-02-0.754D-03
 Coeff-Com: -0.727D-02 0.653D-02 0.409D-01-0.115D+00-0.177D+00 0.125D+01
 Coeff:      0.256D-05-0.447D-04-0.969D-04 0.135D-03 0.113D-02-0.754D-03
 Coeff:     -0.727D-02 0.653D-02 0.409D-01-0.115D+00-0.177D+00 0.125D+01
 Gap=     0.532 Goal=   None    Shift=    0.000
 RMSDP=8.38D-08 MaxDP=2.74D-06 DE=-2.95D-09 OVMax= 9.75D-06

 Cycle  13  Pass 1  IDiag  1:
 E= -279.506564740742     Delta-E=       -0.000000000301 Rises=F Damp=F
 DIIS: error= 1.59D-07 at cycle  13 NSaved=  13.
 NSaved=13 IEnMin=13 EnMin= -279.506564740742     IErMin=13 ErrMin= 1.59D-07
 ErrMax= 1.59D-07  0.00D+00 EMaxC= 1.00D-01 BMatC= 7.27D-12 BMatP= 8.63D-11
 IDIUse=1 WtCom= 1.00D+00 WtEn= 0.00D+00
 Coeff-Com:  0.130D-05-0.122D-04-0.178D-04-0.122D-03 0.513D-04 0.927D-03
 Coeff-Com: -0.107D-02-0.250D-02-0.200D-02 0.548D-01-0.130D+00-0.147D+00
 Coeff-Com:  0.123D+01
 Coeff:      0.130D-05-0.122D-04-0.178D-04-0.122D-03 0.513D-04 0.927D-03
 Coeff:     -0.107D-02-0.250D-02-0.200D-02 0.548D-01-0.130D+00-0.147D+00
 Coeff:      0.123D+01
 Gap=     0.532 Goal=   None    Shift=    0.000
 RMSDP=2.24D-08 MaxDP=6.62D-07 DE=-3.01D-10 OVMax= 2.02D-06

 Cycle  14  Pass 1  IDiag  1:
 E= -279.506564740763     Delta-E=       -0.000000000022 Rises=F Damp=F
 DIIS: error= 4.12D-08 at cycle  14 NSaved=  14.
 NSaved=14 IEnMin=14 EnMin= -279.506564740763     IErMin=14 ErrMin= 4.12D-08
 ErrMax= 4.12D-08  0.00D+00 EMaxC= 1.00D-01 BMatC= 4.90D-13 BMatP= 7.27D-12
 IDIUse=1 WtCom= 1.00D+00 WtEn= 0.00D+00
 Coeff-Com: -0.298D-06 0.444D-05 0.889D-05-0.417D-05-0.113D-03 0.617D-04
 Coeff-Com:  0.645D-03-0.329D-03-0.360D-02 0.818D-02 0.165D-01-0.897D-01
 Coeff-Com: -0.222D-01 0.109D+01
 Coeff:     -0.298D-06 0.444D-05 0.889D-05-0.417D-05-0.113D-03 0.617D-04
 Coeff:      0.645D-03-0.329D-03-0.360D-02 0.818D-02 0.165D-01-0.897D-01
 Coeff:     -0.222D-01 0.109D+01
 Gap=     0.532 Goal=   None    Shift=    0.000
 RMSDP=4.40D-09 MaxDP=1.10D-07 DE=-2.17D-11 OVMax= 4.50D-07

 SCF Done:  E(RHF) =  -279.506564741     A.U. after   14 cycles
            NFock= 14  Conv=0.44D-08     -V/T= 2.0022
 KE= 2.788818980565D+02 PE=-9.062996631889D+02 EE= 2.251981432138D+02
 Leave Link  502 at Sun Mar  6 19:18:53 2022, MaxMem= 16106127360 cpu:              50.8 elap:               3.2
 (Enter /sw/contrib/gaussian/g16/B01/g16/l801.exe)
 ExpMin= 2.53D-02 ExpMax= 1.53D+04 ExpMxC= 5.22D+02 IAcc=3 IRadAn=         5 AccDes= 0.00D+00
 HarFok:  IExCor=  205 AccDes= 0.00D+00 IRadAn=         5 IDoV=-2 UseB2=F ITyADJ=14
 ICtDFT= 12500011 ScaDFX=  1.000000  1.000000  1.000000  1.000000
 Largest valence mixing into a core orbital is  2.07D-04
 Largest core mixing into a valence orbital is  3.10D-05
 Range of M.O.s used for correlation:     5   207
 NBasis=   207 NAE=    16 NBE=    16 NFC=     4 NFV=     0
 NROrb=    203 NOA=    12 NOB=    12 NVA=   191 NVB=   191

 **** Warning!!: The largest alpha MO coefficient is  0.16052851D+02

 Leave Link  801 at Sun Mar  6 19:18:53 2022, MaxMem= 16106127360 cpu:               1.4 elap:               0.1
 (Enter /sw/contrib/gaussian/g16/B01/g16/l906.exe)
 Frozen-core derivative calculation, NFC=   4 NFV=   0.
 FulOut=F Deriv=T AODrv=T NAtomX=     5
   MMem=           0  MDisk=          12 MDiskD=          12
  W3Min=      811440 MinDsk=     2425030 NBas6D=         245
 NBas2D=       30762    NTT=       30135    LW2=     7400000
    MDV= 16105571560 MDiskM=      328644 NBas2p=       30759
 Disk-based method using ON**2 memory for 12 occupieds at a time.
 Permanent disk used for amplitudes=    11516536 words.
 Estimated scratch disk usage=   321863743 words.
 IMap=   1   2   3   4   5   6   7   8   9  10  11  12  13  14  15  16
 Actual    scratch disk usage=   310892607 words.
 JobTyp=1 Pass  1:  I=   5 to  16 NPSUse= 28 ParTrn=T ParDer=T DoDerP=T.
 (rs|ai) integrals will be sorted in core.
 Spin components of T(2) and E(2):
     alpha-alpha T2 =       0.3478543974D-01 E2=     -0.1245143373D+00
     alpha-beta  T2 =       0.1844824934D+00 E2=     -0.6996235726D+00
     beta-beta   T2 =       0.3478543974D-01 E2=     -0.1245143373D+00
 The integrals were generated   1 times.
 ANorm=    0.1119845245D+01
 E2 =    -0.9486522473D+00 EUMP2 =    -0.28045521698808D+03
 Leave Link  906 at Sun Mar  6 19:20:28 2022, MaxMem= 16106127360 cpu:            2652.0 elap:              95.0
 (Enter /sw/contrib/gaussian/g16/B01/g16/l1101.exe)
 Using compressed Sx but separate Hx and Fx, NAtomX=     5.
 Will process      6 centers per pass.
 Leave Link 1101 at Sun Mar  6 19:20:28 2022, MaxMem= 16106127360 cpu:               4.6 elap:               0.2
 (Enter /sw/contrib/gaussian/g16/B01/g16/l1102.exe)
 Leave Link 1102 at Sun Mar  6 19:20:29 2022, MaxMem= 16106127360 cpu:               1.3 elap:               0.1
 (Enter /sw/contrib/gaussian/g16/B01/g16/l1110.exe)
 Forming Gx(P) for the SCF density, NAtomX=     5.
 Integral derivatives from FoFJK, PRISM(SPDF).
 Do as many integral derivatives as possible in FoFJK.
 G2DrvN: MDV=   16106126844.
 G2DrvN: will do     6 centers at a time, making    1 passes.
 Calling FoFCou, ICntrl=  3107 FMM=F I1Cent=   0 AccDes= 0.00D+00.
 FoFJK:  IHMeth= 1 ICntrl=    3107 DoSepK=F KAlg= 0 I1Cent=           0 FoldK=F
 IRaf=         0 NMat=       1 IRICut=       1 DoRegI=T DoRafI=F ISym2E= 1 IDoP0=0 IntGTp=1.
 FoFCou: FMM=F IPFlag=           0 FMFlag=      100000 FMFlg1=           0
         NFxFlg=           0 DoJE=F BraDBF=F KetDBF=F FulRan=T
         wScrn=  0.000000 ICntrl=      3107 IOpCl=  0 I1Cent=           0 NGrid=           0
         NMat0=    1 NMatS0=      1 NMatT0=    0 NMatD0=    1 NMtDS0=    0 NMtDT0=    0
 Petite list used in FoFCou.
 End of G2Drv F.D. properties file   721 does not exist.
 End of G2Drv F.D. properties file   722 does not exist.
 End of G2Drv F.D. properties file   788 does not exist.
 Leave Link 1110 at Sun Mar  6 19:20:31 2022, MaxMem= 16106127360 cpu:              80.7 elap:               2.9
 (Enter /sw/contrib/gaussian/g16/B01/g16/l1002.exe)
 Minotr:  Closed shell wavefunction.
          IDoAtm=11111
          Frozen-core window.
          Direct CPHF calculation.
          Differentiating once with respect to electric field.
                with respect to dipole field.
          Differentiating once with respect to nuclear coordinates.
          Requested convergence is 1.0D-08 RMS, and 1.0D-07 maximum.
          Secondary convergence is 1.0D-12 RMS, and 1.0D-12 maximum.
          NewPWx=T KeepS1=T KeepF1=T KeepIn=T MapXYZ=F SortEE=F KeepMc=T.
 Keep R1 ints in memory in symmetry-blocked form, NReq=348888983.
 FoFCou: FMM=F IPFlag=           0 FMFlag=           0 FMFlg1=           0
         NFxFlg=           0 DoJE=F BraDBF=F KetDBF=F FulRan=T
         wScrn=  0.000000 ICntrl=       600 IOpCl=  0 I1Cent=           0 NGrid=           0
         NMat0=    1 NMatS0=  21528 NMatT0=    0 NMatD0=    1 NMtDS0=    0 NMtDT0=    0
 Petite list used in FoFCou.
          MDV=   16106127360 using IRadAn=       1.
          Solving linear equations simultaneously, MaxMat=       0.
          There are    18 degrees of freedom in the 1st order CPHF.  IDoFFX=6 NUNeed=    18.
     15 vectors produced by pass  0 Test12= 1.70D-14 5.56D-09 XBig12= 7.92D+00 1.23D+00.
 AX will form    15 AO Fock derivatives at one time.
     15 vectors produced by pass  1 Test12= 1.70D-14 5.56D-09 XBig12= 1.35D+00 2.27D-01.
     15 vectors produced by pass  2 Test12= 1.70D-14 5.56D-09 XBig12= 6.55D-02 5.78D-02.
     15 vectors produced by pass  3 Test12= 1.70D-14 5.56D-09 XBig12= 1.94D-03 1.05D-02.
     15 vectors produced by pass  4 Test12= 1.70D-14 5.56D-09 XBig12= 4.12D-05 1.22D-03.
     15 vectors produced by pass  5 Test12= 1.70D-14 5.56D-09 XBig12= 5.77D-07 1.20D-04.
     15 vectors produced by pass  6 Test12= 1.70D-14 5.56D-09 XBig12= 4.53D-09 1.22D-05.
     14 vectors produced by pass  7 Test12= 1.70D-14 5.56D-09 XBig12= 3.43D-11 7.79D-07.
      3 vectors produced by pass  8 Test12= 1.70D-14 5.56D-09 XBig12= 2.36D-13 6.12D-08.
      1 vectors produced by pass  9 Test12= 1.70D-14 5.56D-09 XBig12= 1.60D-15 6.67D-09.
 InvSVY:  IOpt=1 It=  1 EMax= 1.44D-15
 Solved reduced A of dimension   123 with    15 vectors.
 FullF1:  Do perturbations      1 to      18.
 Saving first derivative matrices.
 End of Minotr F.D. properties file   721 does not exist.
 End of Minotr F.D. properties file   722 does not exist.
 End of Minotr F.D. properties file   788 does not exist.
 Leave Link 1002 at Sun Mar  6 19:20:34 2022, MaxMem= 16106127360 cpu:              73.8 elap:               2.8
 (Enter /sw/contrib/gaussian/g16/B01/g16/l811.exe)
 MDV= 16106127360.
 Form MO integral derivatives with frozen-active canonical formalism.
 MOERI=1 MOERIx=1 NAtoms=     5 NAtomX=     5.
 Discarding MO integrals.
 MO basis two electron integral derivatives will not be stored on disk.
 IAlg= 3 DoFC=T DoPWx=T Debug=F.
 Frozen-core window:  NFC=   4 NFV=   0.
 Reordered first order wavefunction length =     18678272
 In DefCFB: NBatch=  1 ICI= 16 ICA=191 LFMax= 96
            Large arrays: LIAPS=   619940160 LIARS=   288257200 words.
 In StABat: MaxSiz= 55 MinSiz= 25 NAtomB=  5
 DoIAMN: NPSUse= 28.
 Leave Link  811 at Sun Mar  6 19:22:03 2022, MaxMem= 16106127360 cpu:            2474.7 elap:              88.6
 (Enter /sw/contrib/gaussian/g16/B01/g16/l804.exe)
 Frozen-core window:  NFC=   4 NFV=   0.
 Closed-shell transformation, MDV= 16106127360 ITran=4 ISComp=1.
 Semi-Direct transformation.
 ModeAB=           2 MOrb=            16 LenV=   16104919939
 LASXX=     67341636 LTotXX=    67341636 LenRXX=    67341636
 LTotAB=    68301760 MaxLAS=    99807120 LenRXY=    99807120
 NonZer=   134683272 LenScr=   202817536 LnRSAI=           0
 LnScr1=           0 LExtra=           0 Total=    369966292
 MaxDsk=          -1 SrtSym=           F ITran=            4
 DoSDTr:  NPSUse= 28
 JobTyp=0 Pass  1:  I=   1 to  16.
 (rs|ai) integrals will be sorted in core.
 Complete sort for first half transformation.
 First half transformation complete.
 Begin second half transformation for I=  10.
 Begin second half transformation for I=  10.
 Complete sort for second half transformation.
 Second half transformation complete.
 Spin components of T(2) and E(2):
     alpha-alpha T2 =       0.3478543974D-01 E2=     -0.1245143373D+00
     alpha-beta  T2 =       0.1844824934D+00 E2=     -0.6996235726D+00
     beta-beta   T2 =       0.3478543974D-01 E2=     -0.1245143373D+00
 ANorm=    0.1583700333D+01
 E2 =    -0.9486522473D+00 EUMP2 =    -0.28045521698808D+03
 Leave Link  804 at Sun Mar  6 19:22:19 2022, MaxMem= 16106127360 cpu:             450.5 elap:              16.2
 (Enter /sw/contrib/gaussian/g16/B01/g16/l1002.exe)
 Minotr:  Closed shell wavefunction.
          Computing MP2/KS-MP2 derivatives.
          Using Z-Vector for PSCF gradient.
          Skipping F1 and S1 gradient terms here.
          IDoAtm=11111
          Frozen-core window.
          Using MO integrals in the linear equations.
          Forming densities via direct SCF.
          Differentiating once with respect to electric field.
                with respect to dipole field.
          Differentiating once with respect to nuclear coordinates.
          Using symmetry in CPHF.
          Requested convergence is 1.0D-10 RMS, and 1.0D-09 maximum.
          NewPWx=F KeepS1=T KeepF1=T KeepIn=T MapXYZ=F SortEE=F KeepMc=T.
          MDV=   16106127360 using IRadAn=       5.
          Solving linear equations separately, MaxMat=       0.
          There are     1 degrees of freedom in the 1st order CPHF.  IDoFFX=0 NUNeed=     1.
 FoFJK:  IHMeth= 1 ICntrl=       0 DoSepK=F KAlg= 0 I1Cent=           0 FoldK=F
 IRaf=         0 NMat=       1 IRICut=       1 DoRegI=T DoRafI=F ISym2E= 0 IDoP0=0 IntGTp=1.
 FoFCou: FMM=F IPFlag=           0 FMFlag=      100000 FMFlg1=           0
         NFxFlg=           0 DoJE=F BraDBF=F KetDBF=F FulRan=T
         wScrn=  0.000000 ICntrl=         0 IOpCl=  0 I1Cent=           0 NGrid=           0
         NMat0=    1 NMatS0=      1 NMatT0=    0 NMatD0=    1 NMtDS0=    0 NMtDT0=    0
 Symmetry not used in FoFCou.
 LinEq1:  Iter=  0 NonCon=     1 RMS=6.59D-03 Max=1.69D-01 NDo=     1
 LinEq1:  Iter=  1 NonCon=     1 RMS=2.00D-03 Max=3.08D-02 NDo=     1
 LinEq1:  Iter=  2 NonCon=     1 RMS=8.86D-04 Max=1.43D-02 NDo=     1
 LinEq1:  Iter=  3 NonCon=     1 RMS=3.80D-04 Max=8.18D-03 NDo=     1
 LinEq1:  Iter=  4 NonCon=     1 RMS=1.37D-04 Max=1.67D-03 NDo=     1
 LinEq1:  Iter=  5 NonCon=     1 RMS=7.64D-05 Max=1.38D-03 NDo=     1
 LinEq1:  Iter=  6 NonCon=     1 RMS=2.43D-05 Max=3.29D-04 NDo=     1
 LinEq1:  Iter=  7 NonCon=     1 RMS=8.16D-06 Max=1.09D-04 NDo=     1
 LinEq1:  Iter=  8 NonCon=     1 RMS=3.97D-06 Max=6.13D-05 NDo=     1
 LinEq1:  Iter=  9 NonCon=     1 RMS=1.04D-06 Max=1.16D-05 NDo=     1
 LinEq1:  Iter= 10 NonCon=     1 RMS=2.31D-07 Max=2.83D-06 NDo=     1
 LinEq1:  Iter= 11 NonCon=     1 RMS=4.98D-08 Max=7.75D-07 NDo=     1
 LinEq1:  Iter= 12 NonCon=     1 RMS=1.17D-08 Max=1.65D-07 NDo=     1
 LinEq1:  Iter= 13 NonCon=     1 RMS=2.06D-09 Max=2.02D-08 NDo=     1
 LinEq1:  Iter= 14 NonCon=     1 RMS=4.27D-10 Max=5.70D-09 NDo=     1
 LinEq1:  Iter= 15 NonCon=     0 RMS=8.75D-11 Max=8.81D-10 NDo=     1
 Linear equations converged to 1.000D-10 1.000D-09 after    15 iterations.
 End of Minotr F.D. properties file   721 does not exist.
 End of Minotr F.D. properties file   722 does not exist.
 End of Minotr F.D. properties file   788 does not exist.
 Leave Link 1002 at Sun Mar  6 19:22:22 2022, MaxMem= 16106127360 cpu:              73.2 elap:               2.7
 (Enter /sw/contrib/gaussian/g16/B01/g16/l1102.exe)
 Use density number 2.
 Symmetrizing basis deriv contribution to polar:
 IMax=3 JMax=2 DiffMx= 0.00D+00
 Leave Link 1102 at Sun Mar  6 19:22:22 2022, MaxMem= 16106127360 cpu:               2.5 elap:               0.1
 (Enter /sw/contrib/gaussian/g16/B01/g16/l1110.exe)
 Forming Gx(P) for generalized density number  2 NAtomX=     5.
 Integral derivatives from FoFJK, PRISM(SPDF).
 Do as many integral derivatives as possible in FoFJK.
 G2DrvN: MDV=   16106126844.
 G2DrvN: will do     6 centers at a time, making    1 passes.
 Calling FoFCou, ICntrl=  3107 FMM=F I1Cent=   0 AccDes= 0.00D+00.
 FoFJK:  IHMeth= 1 ICntrl=    3107 DoSepK=F KAlg= 0 I1Cent=           0 FoldK=F
 IRaf=         0 NMat=       1 IRICut=       1 DoRegI=T DoRafI=F ISym2E= 1 IDoP0=0 IntGTp=1.
 FoFCou: FMM=F IPFlag=           0 FMFlag=      100000 FMFlg1=           0
         NFxFlg=           0 DoJE=F BraDBF=F KetDBF=F FulRan=T
         wScrn=  0.000000 ICntrl=      3107 IOpCl=  0 I1Cent=           0 NGrid=           0
         NMat0=    1 NMatS0=      1 NMatT0=    0 NMatD0=    1 NMtDS0=    0 NMtDT0=    0
 Petite list used in FoFCou.
 End of G2Drv F.D. properties file   721 does not exist.
 End of G2Drv F.D. properties file   722 does not exist.
 End of G2Drv F.D. properties file   788 does not exist.
 Leave Link 1110 at Sun Mar  6 19:22:25 2022, MaxMem= 16106127360 cpu:              81.2 elap:               2.9
 (Enter /sw/contrib/gaussian/g16/B01/g16/l1112.exe)
 MP22nd: MDV=   16106127360
 This link is doing NAtomX=     5 total of    18 degrees of freedom.
 Using ON3 I/O method in MakUI.
 Frozen-core window:  NFC=   4 NFV=   0.
 Using Ix for Sx.
 Use MO integrals over full window.
 Using OV2 memory method for fx*t*t/D, MaxI=    16 DoOO2=F NP=  28.
 R2 and R3 integrals will be kept in memory, NReq=   915591705.
 FoFCou: FMM=F IPFlag=           0 FMFlag=           0 FMFlg1=           0
         NFxFlg=           0 DoJE=F BraDBF=F KetDBF=F FulRan=T
         wScrn=  0.000000 ICntrl=       600 IOpCl=  0 I1Cent=           0 NGrid=           0
         NMat0=    1 NMatS0=      1 NMatT0=    0 NMatD0=    1 NMtDS0=    0 NMtDT0=    0
 Symmetry not used in FoFCou.
 DD1Dir will call FoFMem   1 times, MxPair=       272
 NAB=   136 NAA=     0 NBB=     0.
 Symmetry is being used.
 FoFJK:  IHMeth= 1 ICntrl=       0 DoSepK=F KAlg= 0 I1Cent=           0 FoldK=F
 IRaf=         0 NMat=      18 IRICut=      45 DoRegI=T DoRafI=T ISym2E= 2 IDoP0=3 IntGTp=3.
 Discarding MO integrals.
 Leave Link 1112 at Sun Mar  6 19:23:02 2022, MaxMem= 16106127360 cpu:            1026.0 elap:              37.1
 (Enter /sw/contrib/gaussian/g16/B01/g16/l601.exe)
 Copying SCF densities to generalized density rwf, IOpCl= 0 IROHF=0.

 **********************************************************************

            Population analysis using the MP2 Density.

 **********************************************************************

 Orbital symmetries:
       Occupied  (A') (A') (A') (A') (A') (A') (A') (A') (A') (A')
                 (A") (A') (A') (A") (A') (A")
       Virtual   (A') (A") (A') (A') (A") (A') (A') (A') (A") (A')
                 (A") (A') (A') (A') (A") (A') (A') (A") (A') (A')
                 (A') (A') (A') (A') (A") (A') (A') (A") (A') (A')
                 (A') (A") (A") (A') (A') (A') (A") (A') (A") (A')
                 (A") (A") (A') (A') (A") (A') (A') (A") (A') (A')
                 (A') (A") (A') (A') (A") (A') (A") (A') (A") (A')
                 (A') (A') (A") (A') (A') (A') (A") (A") (A') (A')
                 (A") (A') (A") (A") (A') (A') (A") (A') (A') (A')
                 (A") (A') (A') (A") (A') (A") (A") (A') (A') (A')
                 (A') (A') (A") (A") (A') (A') (A") (A") (A') (A")
                 (A') (A') (A") (A') (A") (A') (A') (A') (A") (A")
                 (A') (A') (A') (A') (A") (A') (A') (A') (A") (A')
                 (A") (A") (A') (A') (A") (A") (A') (A") (A') (A')
                 (A') (A') (A") (A') (A') (A") (A") (A') (A') (A')
                 (A") (A") (A') (A') (A') (A") (A') (A') (A') (A")
                 (A') (A') (A') (A") (A") (A') (A") (A') (A') (A")
                 (A') (A") (A') (A") (A") (A') (A') (A") (A") (A")
                 (A') (A") (A") (A') (A') (A") (A') (A') (A") (A')
                 (A') (A') (A') (A') (A') (A') (A') (A') (A') (A')
                 (A')
 The electronic state is 1-A'.
 Alpha  occ. eigenvalues --  -20.71990 -20.68680 -20.66810 -15.82565  -1.64369
 Alpha  occ. eigenvalues --   -1.50472  -1.29372  -0.96037  -0.83404  -0.75864
 Alpha  occ. eigenvalues --   -0.73969  -0.63713  -0.61861  -0.61806  -0.50421
 Alpha  occ. eigenvalues --   -0.49743
 Alpha virt. eigenvalues --    0.03492   0.06058   0.09516   0.10041   0.11987
 Alpha virt. eigenvalues --    0.12260   0.14930   0.15166   0.17760   0.18058
 Alpha virt. eigenvalues --    0.18985   0.21111   0.21659   0.24263   0.24637
 Alpha virt. eigenvalues --    0.26924   0.31235   0.31630   0.33820   0.34370
 Alpha virt. eigenvalues --    0.34627   0.39251   0.44849   0.48746   0.50484
 Alpha virt. eigenvalues --    0.51865   0.54592   0.56140   0.59989   0.62007
 Alpha virt. eigenvalues --    0.63880   0.68890   0.71746   0.72432   0.74370
 Alpha virt. eigenvalues --    0.76319   0.76732   0.79585   0.80651   0.84059
 Alpha virt. eigenvalues --    0.84314   0.85112   0.88554   0.90755   0.93139
 Alpha virt. eigenvalues --    0.94723   0.95453   1.01789   1.03076   1.06070
 Alpha virt. eigenvalues --    1.06533   1.09451   1.14336   1.15629   1.16942
 Alpha virt. eigenvalues --    1.22281   1.22695   1.24510   1.35080   1.36551
 Alpha virt. eigenvalues --    1.37248   1.46860   1.48579   1.50588   1.54067
 Alpha virt. eigenvalues --    1.59641   1.59734   1.60654   1.62882   1.69639
 Alpha virt. eigenvalues --    1.73761   1.80127   1.83021   1.88854   1.89002
 Alpha virt. eigenvalues --    1.92779   1.97937   1.99018   2.05166   2.12345
 Alpha virt. eigenvalues --    2.12895   2.16411   2.18664   2.24413   2.25905
 Alpha virt. eigenvalues --    2.29272   2.35053   2.36520   2.38574   2.40160
 Alpha virt. eigenvalues --    2.43273   2.46935   2.47888   2.52875   2.53700
 Alpha virt. eigenvalues --    2.55060   2.55800   2.61566   2.62933   2.67322
 Alpha virt. eigenvalues --    2.67344   2.75613   2.81260   2.81931   2.83561
 Alpha virt. eigenvalues --    2.91906   2.98511   3.04691   3.05125   3.11471
 Alpha virt. eigenvalues --    3.11570   3.17188   3.20925   3.30709   3.33252
 Alpha virt. eigenvalues --    3.36252   3.47613   3.67877   3.86891   3.92517
 Alpha virt. eigenvalues --    4.18266   4.22232   4.22639   4.26796   4.37052
 Alpha virt. eigenvalues --    4.50125   4.52485   4.55647   4.59480   4.69572
 Alpha virt. eigenvalues --    4.80952   4.89894   4.91392   4.94248   5.00039
 Alpha virt. eigenvalues --    5.00589   5.10670   5.13348   5.18090   5.24939
 Alpha virt. eigenvalues --    5.26035   5.31841   5.33858   5.35750   5.54765
 Alpha virt. eigenvalues --    5.64507   5.70457   5.88596   5.99816   6.26485
 Alpha virt. eigenvalues --    6.29428   6.36256   6.37924   6.59620   6.65751
 Alpha virt. eigenvalues --    6.66150   6.68929   6.72699   6.79860   6.80297
 Alpha virt. eigenvalues --    6.85166   6.96760   7.01408   7.06635   7.08229
 Alpha virt. eigenvalues --    7.14350   7.17468   7.17517   7.20212   7.24555
 Alpha virt. eigenvalues --    7.24648   7.27044   7.34828   7.39089   7.42505
 Alpha virt. eigenvalues --    7.44271   7.46276   7.55999   7.66376   7.66410
 Alpha virt. eigenvalues --    7.79353   7.88074   7.95253   8.05923   8.30099
 Alpha virt. eigenvalues --    8.50249   8.65232  13.61918  14.75282  15.09992
 Alpha virt. eigenvalues --   15.74889
          Condensed to atoms (all electrons):
               1          2          3          4          5
     1  H    0.576416   0.125187   0.025033  -0.000759  -0.005841
     2  O    0.125187   8.389597  -0.231333  -0.000635  -0.008882
     3  O    0.025033  -0.231333   8.371643  -0.168582  -0.034348
     4  N   -0.000759  -0.000635  -0.168582   7.134345  -0.117455
     5  O   -0.005841  -0.008882  -0.034348  -0.117455   8.363231
 Mulliken charges:
               1
     1  H    0.279964
     2  O   -0.273934
     3  O    0.037587
     4  N    0.153087
     5  O   -0.196704
 Sum of Mulliken charges =  -0.00000
 Mulliken charges with hydrogens summed into heavy atoms:
               1
     2  O    0.006031
     3  O    0.037587
     4  N    0.153087
     5  O   -0.196704
 APT charges:
               1
     1  H    0.271098
     2  O   -0.302312
     3  O   -0.309326
     4  N    0.642862
     5  O   -0.302322
 Sum of APT charges =  -0.00000
 APT charges with hydrogens summed into heavy atoms:
               1
     2  O   -0.031214
     3  O   -0.309326
     4  N    0.642862
     5  O   -0.302322
 Electronic spatial extent (au):  <R**2>=            207.2986
 Charge=             -0.0000 electrons
 Dipole moment (field-independent basis, Debye):
    X=              0.0705    Y=             -1.1006    Z=             -0.0000  Tot=              1.1028
 Quadrupole moment (field-independent basis, Debye-Ang):
   XX=            -23.3482   YY=            -22.9392   ZZ=            -21.9363
   XY=             -2.0087   XZ=             -0.0000   YZ=             -0.0000
 Traceless Quadrupole moment (field-independent basis, Debye-Ang):
   XX=             -0.6070   YY=             -0.1979   ZZ=              0.8049
   XY=             -2.0087   XZ=             -0.0000   YZ=             -0.0000
 Octapole moment (field-independent basis, Debye-Ang**2):
  XXX=              2.6325  YYY=              0.2732  ZZZ=             -0.0000  XYY=              2.3834
  XXY=             -2.8683  XXZ=             -0.0000  XZZ=             -0.5876  YZZ=             -0.7057
  YYZ=             -0.0000  XYZ=              0.0000
 Hexadecapole moment (field-independent basis, Debye-Ang**3):
 XXXX=           -127.1460 YYYY=            -94.7853 ZZZZ=            -18.0507 XXXY=            -21.6773
 XXXZ=             -0.0000 YYYX=            -19.8441 YYYZ=             -0.0000 ZZZX=             -0.0000
 ZZZY=             -0.0000 XXYY=            -35.6388 XXZZ=            -24.3739 YYZZ=            -18.5820
 XXYZ=             -0.0000 YYXZ=             -0.0000 ZZXY=             -5.9170
 N-N= 1.227130571779D+02 E-N=-9.069880356561D+02  KE= 2.801996689030D+02
 Symmetry A'   KE= 2.663486183179D+02
 Symmetry A"   KE= 1.385105058510D+01
  Exact polarizability:  30.932   4.110  29.869  -0.000   0.000  17.632
 Approx polarizability:  24.540   0.483  27.678   0.000   0.000  15.523
 No NMR shielding tensors so no spin-rotation constants.
 Leave Link  601 at Sun Mar  6 19:23:02 2022, MaxMem= 16106127360 cpu:               3.6 elap:               0.2
 (Enter /sw/contrib/gaussian/g16/B01/g16/l701.exe)
 ... and contract with generalized density number  2.
 Compute integral second derivatives.
 Leave Link  701 at Sun Mar  6 19:23:03 2022, MaxMem= 16106127360 cpu:               5.4 elap:               0.2
 (Enter /sw/contrib/gaussian/g16/B01/g16/l702.exe)
 L702 exits ... SP integral derivatives will be done elsewhere.
 Leave Link  702 at Sun Mar  6 19:23:03 2022, MaxMem= 16106127360 cpu:               0.5 elap:               0.0
 (Enter /sw/contrib/gaussian/g16/B01/g16/l703.exe)
 Integral derivatives from FoFJK, PRISM(SPDF).
 Compute integral second derivatives, UseDBF=F ICtDFT=           0.
 Calling FoFJK, ICntrl=  10100127 FMM=F ISym2X=1 I1Cent= 0 IOpClX= 0 NMat=1 NMatS=1 NMatT=0.
 FoFJK:  IHMeth= 1 ICntrl=10100127 DoSepK=F KAlg= 0 I1Cent=           0 FoldK=F
 IRaf=         0 NMat=       1 IRICut=       1 DoRegI=T DoRafI=F ISym2E= 1 IDoP0=0 IntGTp=1.
 FoFCou: FMM=F IPFlag=           0 FMFlag=      100000 FMFlg1=         800
         NFxFlg=           0 DoJE=F BraDBF=F KetDBF=F FulRan=T
         wScrn=  0.000000 ICntrl=  10100127 IOpCl=  0 I1Cent=           0 NGrid=           0
         NMat0=    1 NMatS0=      1 NMatT0=    0 NMatD0=    1 NMtDS0=    0 NMtDT0=    0
 Petite list used in FoFCou.
 Leave Link  703 at Sun Mar  6 19:23:17 2022, MaxMem= 16106127360 cpu:             414.3 elap:              14.9
 (Enter /sw/contrib/gaussian/g16/B01/g16/l716.exe)
 Dipole        = 2.77536567D-02-4.33004369D-01-3.25258393D-33
 Polarizability= 3.09320704D+01 4.11020589D+00 2.98693097D+01
                -9.27033531D-34 1.56300660D-31 1.76321341D+01
 Full mass-weighted force constant matrix:
 Low frequencies ---  -19.0055   -0.0006    0.0004    0.0010   14.4398   38.2390
 Low frequencies ---  344.1003  396.8641  524.0497
 Diagonal vibrational polarizability:
        7.2704108       9.9725427      17.0319341
 Harmonic frequencies (cm**-1), IR intensities (KM/Mole), Raman scattering
 activities (A**4/AMU), depolarization ratios for plane and unpolarized
 incident light, reduced masses (AMU), force constants (mDyne/A),
 and normal coordinates:
                      1                      2                      3
                     A"                     A'                     A"
 Frequencies --    343.9028               396.8628               524.0154
 Red. masses --      1.5520                 6.9982                 2.9357
 Frc consts  --      0.1081                 0.6494                 0.4750
 IR Inten    --     63.8678                 7.6961                25.5022
  Atom  AN      X      Y      Z        X      Y      Z        X      Y      Z
     1   1    -0.00  -0.00   0.98    -0.73  -0.25  -0.00    -0.00  -0.00   0.93
     2   8    -0.00  -0.00  -0.11    -0.32  -0.31   0.00    -0.00  -0.00   0.05
     3   8    -0.00   0.00   0.12    -0.06   0.09  -0.00    -0.00   0.00  -0.18
     4   7     0.00   0.00  -0.11     0.05   0.09  -0.00    -0.00   0.00   0.27
     5   8     0.00   0.00   0.03     0.39   0.16   0.00     0.00   0.00  -0.17
                      4                      5                      6
                     A'                     A'                     A'
 Frequencies --    710.6644               835.2306               969.8510
 Red. masses --     13.2966                12.0465                 9.7564
 Frc consts  --      3.9566                 4.9514                 5.4069
 IR Inten    --    217.7779                30.4711                12.7575
  Atom  AN      X      Y      Z        X      Y      Z        X      Y      Z
     1   1    -0.36   0.00  -0.00     0.46  -0.16  -0.00    -0.63  -0.01   0.00
     2   8    -0.01  -0.08  -0.00     0.52  -0.20  -0.00     0.20  -0.17   0.00
     3   8     0.37   0.58   0.00    -0.38  -0.02   0.00    -0.36   0.41  -0.00
     4   7    -0.41  -0.46  -0.00    -0.43  -0.06  -0.00     0.38   0.05   0.00
     5   8     0.01  -0.10   0.00     0.20   0.28   0.00    -0.13  -0.28  -0.00
                      7                      8                      9
                     A'                     A'                     A'
 Frequencies --   1425.5562              1568.3082              3491.9379
 Red. masses --      1.2895                 7.0182                 1.0639
 Frc consts  --      1.5439                10.1704                 7.6430
 IR Inten    --     79.2579               150.0133                41.8323
  Atom  AN      X      Y      Z        X      Y      Z        X      Y      Z
     1   1     0.97  -0.20   0.00    -0.74   0.16  -0.00     0.14   0.99  -0.00
     2   8    -0.07  -0.05   0.00     0.02   0.02  -0.00    -0.01  -0.06   0.00
     3   8    -0.03   0.06  -0.00    -0.04  -0.06   0.00     0.00  -0.00  -0.00
     4   7     0.06  -0.05   0.00     0.26  -0.42  -0.00    -0.00   0.00  -0.00
     5   8    -0.02   0.04  -0.00    -0.16   0.40   0.00     0.00  -0.00   0.00

 -------------------
 - Thermochemistry -
 -------------------
 Temperature   298.150 Kelvin.  Pressure   1.00000 Atm.
 Atom     1 has atomic number  1 and mass   1.00783
 Atom     2 has atomic number  8 and mass  15.99491
 Atom     3 has atomic number  8 and mass  15.99491
 Atom     4 has atomic number  7 and mass  14.00307
 Atom     5 has atomic number  8 and mass  15.99491
 Molecular mass:    62.99564 amu.
 Principal axes and moments of inertia in atomic units:
                           1         2         3
     Eigenvalues --    84.61235 222.64208 307.25443
           X            0.79683  -0.60420   0.00000
           Y            0.60420   0.79683   0.00000
           Z            0.00000  -0.00000   1.00000
 This molecule is an asymmetric top.
 Rotational symmetry number  1.
 Rotational temperatures (Kelvin)      1.02366     0.38903     0.28190
 Rotational constants (GHZ):          21.32952     8.10602     5.87377
 Zero-point vibrational energy      61406.3 (Joules/Mol)
                                   14.67645 (Kcal/Mol)
 Warning -- explicit consideration of   3 degrees of freedom as
           vibrations may cause significant error
 Vibrational temperatures:    494.80   571.00   753.94  1022.49  1201.71
          (Kelvin)           1395.40  2051.06  2256.45  5024.12
 
 Zero-point correction=                           0.023388 (Hartree/Particle)
 Thermal correction to Energy=                    0.027337
 Thermal correction to Enthalpy=                  0.028282
 Thermal correction to Gibbs Free Energy=        -0.002597
 Sum of electronic and zero-point Energies=           -280.431829
 Sum of electronic and thermal Energies=              -280.427880
 Sum of electronic and thermal Enthalpies=            -280.426935
 Sum of electronic and thermal Free Energies=         -280.457814
 
                     E (Thermal)             CV                S
                      KCal/Mol        Cal/Mol-Kelvin    Cal/Mol-Kelvin
 Total                   17.155             12.194             64.989
 Electronic               0.000              0.000              0.000
 Translational            0.889              2.981             38.341
 Rotational               0.889              2.981             23.275
 Vibrational             15.377              6.232              3.374
 Vibration     1          0.723              1.588              1.194
 Vibration     2          0.763              1.477              0.974
 Vibration     3          0.879              1.197              0.601
                       Q            Log10(Q)             Ln(Q)
 Total Bot       0.156450D+02          1.194376          2.750153
 Total V=0       0.895969D+12         11.952293         27.521171
 Vib (Bot)       0.292309D-10        -10.534158        -24.255796
 Vib (Bot)    1  0.538597D+00         -0.268736         -0.618788
 Vib (Bot)    2  0.450141D+00         -0.346651         -0.798193
 Vib (Bot)    3  0.306897D+00         -0.513008         -1.181245
 Vib (V=0)       0.167401D+01          0.223758          0.515222
 Vib (V=0)    1  0.123491D+01          0.091634          0.210995
 Vib (V=0)    2  0.117278D+01          0.069215          0.159373
 Vib (V=0)    3  0.108667D+01          0.036099          0.083121
 Electronic      0.100000D+01          0.000000          0.000000
 Translational   0.196526D+08          7.293420         16.793719
 Rotational      0.272342D+05          4.435115         10.212230
 
                                                                title
                                                             IR Spectrum
 
     3                                                                     1     1                                                   
     4                                                                     5     4               9    8    7     5    3 3            
     9                                                                     6     2               7    3    1     2    9 4            
     2                                                                     8     6               0    5    1     4    7 4            
 
     X                                                                     X     X               X    X    X     X    X X            
     X                                                                     X     X                    X    X     X      X            
     X                                                                     X     X                    X    X            X            
     X                                                                     X     X                         X            X            
                                                                           X     X                         X            X            
                                                                           X     X                         X            X            
                                                                           X     X                         X                         
                                                                           X                               X                         
                                                                           X                               X                         
                                                                           X                               X                         
                                                                           X                               X                         
                                                                           X                               X                         
                                                                           X                               X                         
                                                                           X                               X                         
                                                                                                           X                         
                                                                                                           X                         
                                                                                                           X                         
                                                                                                           X                         
                                                                                                           X                         
                                                                                                           X                         
 
 ***** Axes restored to original set *****
 -------------------------------------------------------------------
 Center     Atomic                   Forces (Hartrees/Bohr)
 Number     Number              X              Y              Z
 -------------------------------------------------------------------
      1        1           0.001816563   -0.000000000    0.000577026
      2        8          -0.001497336    0.000000000    0.000916536
      3        8          -0.000445192    0.000000000   -0.001470507
      4        7           0.000071009   -0.000000000    0.000020965
      5        8           0.000054955   -0.000000000   -0.000044020
 -------------------------------------------------------------------
 Cartesian Forces:  Max     0.001816563 RMS     0.000778286
 -----------------------------------------------------------------------------------------------
                       Internal Coordinate Forces (Hartree/Bohr or radian)
  Cent   Atom   N1       Length/X         N2         Alpha/Y        N3         Beta/Z          J
 -----------------------------------------------------------------------------------------------
      1  H 
      2  O        1  -0.000577(     1)
      3  O        2  -0.000608(     2)      1  -0.003383(     5)
      4  N        3   0.000090(     3)      2   0.000394(     6)      1  -0.000000(     8)     0
      5  O        4   0.000009(     4)      3   0.000158(     7)      2  -0.000000(     9)     0
 -----------------------------------------------------------------------------------------------
 Internal  Forces:  Max     0.003382785 RMS     0.001170699
 Force constants in Cartesian coordinates: 
                1             2             3             4             5 
      1  0.707342D-01
      2  0.000000D+00  0.601206D-02
      3  0.227455D-01  0.000000D+00  0.437945D+00
      4 -0.530310D-01  0.000000D+00 -0.444526D-02  0.282100D+00
      5  0.000000D+00 -0.173681D-02  0.000000D+00  0.000000D+00  0.110069D-01
      6  0.328132D-01  0.000000D+00 -0.421575D+00 -0.118973D-01  0.000000D+00
      7 -0.233229D-01  0.000000D+00 -0.151532D-01 -0.169425D+00  0.000000D+00
      8  0.000000D+00 -0.488575D-02  0.000000D+00  0.000000D+00 -0.184565D-01
      9 -0.437576D-01  0.000000D+00 -0.190546D-01  0.101764D-01  0.000000D+00
     10 -0.471409D-02  0.000000D+00  0.595207D-02 -0.849247D-01  0.000000D+00
     11  0.000000D+00  0.796238D-02  0.000000D+00  0.000000D+00  0.198137D-01
     12 -0.189415D-01  0.000000D+00  0.110099D-01  0.100532D-01  0.000000D+00
     13  0.103338D-01  0.000000D+00 -0.909911D-02  0.252802D-01  0.000000D+00
     14  0.000000D+00 -0.735188D-02  0.000000D+00  0.000000D+00 -0.106272D-01
     15  0.714032D-02  0.000000D+00 -0.832596D-02 -0.388708D-02  0.000000D+00
                6             7             8             9            10 
      6  0.523533D+00
      7 -0.913486D-01  0.300310D+00
      8  0.000000D+00  0.000000D+00  0.410274D-01
      9 -0.983353D-01  0.801150D-01  0.000000D+00  0.317650D+00
     10  0.397620D-01 -0.143678D+00  0.000000D+00 -0.371608D-01  0.547237D+00
     11  0.000000D+00  0.000000D+00 -0.477404D-01  0.000000D+00  0.000000D+00
     12 -0.930216D-02  0.140871D-01  0.000000D+00 -0.253288D-01  0.244505D+00
     13  0.306707D-01  0.361161D-01  0.000000D+00 -0.937310D-02 -0.313920D+00
     14  0.000000D+00  0.000000D+00  0.300553D-01  0.000000D+00  0.000000D+00
     15  0.567930D-02  0.122998D-01  0.000000D+00 -0.174931D+00 -0.253058D+00
               11            12            13            14            15 
     11  0.574917D-01
     12  0.000000D+00  0.454951D+00
     13  0.000000D+00 -0.249703D+00  0.242190D+00
     14 -0.375274D-01  0.000000D+00  0.000000D+00  0.254512D-01
     15  0.000000D+00 -0.431330D+00  0.237505D+00  0.000000D+00  0.608908D+00
 Force constants in internal coordinates: 
                1             2             3             4             5 
      1  0.437945D+00
      2  0.211769D-01  0.256955D+00
      3  0.399526D-02  0.177805D-01  0.207846D+00
      4 -0.118304D-01  0.225297D-01  0.148596D+00  0.721122D+00
      5  0.441708D-01  0.527778D-01 -0.240339D-01  0.213274D-01  0.244187D+00
      6  0.106650D-01  0.210655D-01  0.927143D-01  0.915241D-02 -0.116512D-01
      7  0.787208D-02 -0.726155D-01  0.121766D+00  0.116501D+00 -0.216794D-01
      8  0.000000D+00  0.000000D+00  0.000000D+00  0.000000D+00  0.000000D+00
      9  0.000000D+00  0.000000D+00  0.000000D+00  0.000000D+00  0.000000D+00
                6             7             8             9 
      6  0.517007D+00
      7  0.619914D-01  0.662606D+00
      8  0.000000D+00  0.000000D+00  0.196539D-01
      9  0.000000D+00  0.000000D+00  0.276070D-01  0.107674D+00
 Leave Link  716 at Sun Mar  6 19:23:18 2022, MaxMem= 16106127360 cpu:               1.2 elap:               0.1
 (Enter /sw/contrib/gaussian/g16/B01/g16/l103.exe)

 GradGradGradGradGradGradGradGradGradGradGradGradGradGradGradGradGradGrad
 Berny optimization.
 Search for a local minimum.
 Step number   1 out of a maximum of    2
 All quantities printed in internal units (Hartrees-Bohrs-Radians)
 Second derivative matrix not updated -- analytic derivatives used.
 The second derivative matrix:
                          r1        r2        r3        r4        a1
           r1           0.43795
           r2           0.02118   0.25695
           r3           0.00400   0.01778   0.20785
           r4          -0.01183   0.02253   0.14860   0.72112
           a1           0.04417   0.05278  -0.02403   0.02133   0.24419
           a2           0.01067   0.02107   0.09271   0.00915  -0.01165
           a3           0.00787  -0.07262   0.12177   0.11650  -0.02168
           d1          -0.00000  -0.00000  -0.00000   0.00000   0.00000
           d2          -0.00000   0.00000   0.00000   0.00000   0.00000
                          a2        a3        d1        d2
           a2           0.51701
           a3           0.06199   0.66261
           d1          -0.00000  -0.00000   0.01965
           d2           0.00000  -0.00000   0.02761   0.10767
 ITU=  0
     Eigenvalues ---    0.01171   0.11562   0.12412   0.20278   0.27034
     Eigenvalues ---    0.44977   0.51096   0.60733   0.88237
 Angle between quadratic step and forces=  19.66 degrees.
 Linear search not attempted -- first point.
 Variable       Old X    -DE/DX   Delta X   Delta X   Delta X     New X
                                 (Linear)    (Quad)   (Total)
    r1        1.86209  -0.00058   0.00000   0.00012   0.00012   1.86221
    r2        2.69614  -0.00061   0.00000   0.00057   0.00057   2.69671
    r3        2.60992   0.00009   0.00000  -0.00226  -0.00226   2.60766
    r4        2.25782   0.00001   0.00000   0.00087   0.00087   2.25869
    a1        1.76992  -0.00338   0.00000  -0.01426  -0.01426   1.75566
    a2        1.97463   0.00039   0.00000   0.00080   0.00080   1.97543
    a3        1.99550   0.00016   0.00000   0.00002   0.00002   1.99552
    d1        0.00000  -0.00000   0.00000   0.00000   0.00000   0.00000
    d2        0.00000  -0.00000   0.00000  -0.00000  -0.00000  -0.00000
         Item               Value     Threshold  Converged?
 Maximum Force            0.003383     0.000450     NO 
 RMS     Force            0.001171     0.000300     NO 
 Maximum Displacement     0.014256     0.001800     NO 
 RMS     Displacement     0.004831     0.001200     NO 
 Predicted change in Energy=-2.396650D-05
                       ----------------------------
                       ! Non-Optimized Parameters !
                       ! (Angstroms and Degrees)  !
 ----------------------                            ----------------------
 !      Name          Value   Derivative information (Atomic Units)     !
 ------------------------------------------------------------------------
 !       r1          0.9854   -DE/DX =   -0.0006                        !
 !       r2          1.427    -DE/DX =   -0.0006                        !
 !       r3          1.3799   -DE/DX =    0.0001                        !
 !       r4          1.1952   -DE/DX =    0.0                           !
 !       a1        100.5919   -DE/DX =   -0.0034                        !
 !       a2        113.1837   -DE/DX =    0.0004                        !
 !       a3        114.335    -DE/DX =    0.0002                        !
 !       d1          0.0      -DE/DX =    0.0                           !
 !       d2          0.0      -DE/DX =    0.0                           !
 ------------------------------------------------------------------------
 GradGradGradGradGradGradGradGradGradGradGradGradGradGradGradGradGradGrad

 Leave Link  103 at Sun Mar  6 19:23:18 2022, MaxMem= 16106127360 cpu:               0.8 elap:               0.1
 (Enter /sw/contrib/gaussian/g16/B01/g16/l9999.exe)

 ----------------------------------------------------------------------

 Electric dipole moment (input orientation):
 (Debye = 10**-18 statcoulomb cm , SI units = C m)
                  (au)            (Debye)         (10**-30 SI)
   Tot        0.433893D+00      0.110285D+01      0.367870D+01
   x         -0.112480D+00     -0.285895D+00     -0.953645D+00
   y          0.000000D+00      0.000000D+00      0.000000D+00
   z         -0.419060D+00     -0.106514D+01     -0.355294D+01

 Dipole polarizability, Alpha (input orientation).
 (esu units = cm**3 , SI units = C**2 m**2 J**-1)
 Alpha(0;0):
               (au)            (10**-24 esu)      (10**-40 SI)
   iso        0.261445D+02      0.387422D+01      0.431065D+01
   aniso      0.146480D+02      0.217061D+01      0.241513D+01
   xx         0.293037D+02      0.434237D+01      0.483153D+01
   yx         0.000000D+00      0.000000D+00      0.000000D+00
   yy         0.176321D+02      0.261281D+01      0.290715D+01
   zx        -0.399661D+01     -0.592236D+00     -0.658951D+00
   zy         0.000000D+00      0.000000D+00      0.000000D+00
   zz         0.314976D+02      0.466747D+01      0.519326D+01

 ----------------------------------------------------------------------

 Dipole orientation:
     1          0.00000000         -0.00000000          0.00000000
     8         -0.48271822         -0.00000000         -1.79843534
     8          1.93155023         -0.00000000         -2.99863824
     7          3.91824641          0.00000000         -1.30609708
     8          3.29230813          0.00000000          0.86322673

 Electric dipole moment (dipole orientation):
 (Debye = 10**-18 statcoulomb cm , SI units = C m)
                  (au)            (Debye)         (10**-30 SI)
   Tot        0.433893D+00      0.110285D+01      0.367870D+01
   x          0.000000D+00      0.000000D+00      0.000000D+00
   y          0.000000D+00      0.000000D+00      0.000000D+00
   z          0.433893D+00      0.110285D+01      0.367870D+01

 Dipole polarizability, Alpha (dipole orientation).
 (esu units = cm**3 , SI units = C**2 m**2 J**-1)
 Alpha(0;0):
               (au)            (10**-24 esu)      (10**-40 SI)
   iso        0.261445D+02      0.387422D+01      0.431065D+01
   aniso      0.146480D+02      0.217061D+01      0.241513D+01
   xx         0.314525D+02      0.466077D+01      0.518581D+01
   yx         0.000000D+00      0.000000D+00      0.000000D+00
   yy         0.176321D+02      0.261281D+01      0.290715D+01
   zx         0.400873D+01      0.594033D+00      0.660951D+00
   zy         0.000000D+00      0.000000D+00      0.000000D+00
   zz         0.293489D+02      0.434906D+01      0.483898D+01

 ----------------------------------------------------------------------
 1\1\GINC-N2398\Freq\RMP2-FC\Aug-CC-pVTZ\H1N1O3\CGAVINH\06-Mar-2022\1\\
 #p freq mp2/aug-cc-pvtz density=current\\title\\0,1\H\O,1,r1\O,2,r2,1,
 a1\N,3,r3,2,a2,1,d1,0\O,4,r4,3,a3,2,d2,0\\r1=0.98537664\r2=1.42673666\
 r3=1.38110764\r4=1.19478846\a1=101.40866739\a2=113.13777052\a3=114.333
 92022\d1=0.\d2=0.\\Version=ES64L-G16RevB.01\State=1-A'\HF=-279.5065647
 \MP2=-280.455217\RMSD=4.395e-09\RMSF=7.783e-04\ZeroPoint=0.0233884\The
 rmal=0.0273374\Dipole=-0.1124799,0.,-0.41906\DipoleDeriv=0.3151224,0.,
 0.0407932,0.,0.2998804,0.,-0.0177287,0.,0.1982926,-0.5292549,0.,0.2741
 514,0.,-0.2559943,0.,-0.1152239,0.,-0.1216871,-0.0080506,0.,0.3502841,
 0.,-0.0097771,0.,0.4563497,0.,-0.9101518,0.210873,0.,-0.1607447,0.,0.0
 121561,0.,-0.688259,0.,1.7055574,0.01131,0.,-0.5044841,0.,-0.0462651,0
 .,0.3648619,0.,-0.872011\Polar=29.3037442,0.,17.6321341,-3.996607,0.,3
 1.497636\Quadrupole=0.1371841,0.5984226,-0.7356067,0.,1.4363102,0.\PG=
 CS [SG(H1N1O3)]\NImag=0\\0.07073416,0.,0.00601206,0.02274553,0.,0.4379
 4529,-0.05303096,0.,-0.00444526,0.28210026,0.,-0.00173681,0.,0.,0.0110
 0688,0.03281324,0.,-0.42157463,-0.01189726,0.,0.52353277,-0.02332288,0
 .,-0.01515323,-0.16942489,0.,-0.09134864,0.30030976,0.,-0.00488575,0.,
 0.,-0.01845650,0.,0.,0.04102736,-0.04375756,0.,-0.01905458,0.01017639,
 0.,-0.09833528,0.08011502,0.,0.31764971,-0.00471409,0.,0.00595207,-0.0
 8492465,0.,0.03976196,-0.14367809,0.,-0.03716076,0.54723662,0.,0.00796
 238,0.,0.,0.01981366,0.,0.,-0.04774037,0.,0.,0.05749173,-0.01894152,0.
 ,0.01100988,0.01005322,0.,-0.00930216,0.01408708,0.,-0.02532880,0.2445
 0458,0.,0.45495133,0.01033377,0.,-0.00909911,0.02528025,0.,0.03067070,
 0.03611610,0.,-0.00937310,-0.31391979,0.,-0.24970336,0.24218967,0.,-0.
 00735188,0.,0.,-0.01062722,0.,0.,0.03005527,0.,0.,-0.03752740,0.,0.,0.
 02545124,0.00714032,0.,-0.00832596,-0.00388708,0.,0.00567930,0.0122997
 6,0.,-0.17493106,-0.25305786,0.,-0.43133024,0.23750486,0.,0.60890795\\
 -0.00181656,0.,-0.00057703,0.00149734,0.,-0.00091654,0.00044519,0.,0.0
 0147051,-0.00007101,0.,-0.00002097,-0.00005495,0.,0.00004402\\\@


 NO HUMAN INVESTIGATION CAN BECOME REAL SCIENCE
 WITHOUT GOING THROUGH MATHEMATICAL PEOPLE.
 -- LEONARDO DA VINCI, IN "PENSIERI" CA. 1492
 Job cpu time:       0 days  2 hours  3 minutes 47.7 seconds.
 Elapsed time:       0 days  0 hours  4 minutes 28.7 seconds.
 File lengths (MBytes):  RWF=   7239 Int=      0 D2E=      0 Chk=      8 Scr=      1
 Normal termination of Gaussian 16 at Sun Mar  6 19:23:19 2022.
