title                                                                   
Freq      RMP2-FC                                                     Aug-CC-pVTZ         
Number of atoms                            I                5
Info1-9                                    I   N=           9
          33          24           0           0           0         100
           6           2           1
Full Title                                 C   N=           1
title       
Route                                      C   N=           4
#p freq mp2/aug-cc-pvtz density=current         
Charge                                     I                0
Multiplicity                               I                1
Number of electrons                        I               32
Number of alpha electrons                  I               16
Number of beta electrons                   I               16
Number of basis functions                  I              207
Number of independent functions            I              207
Number of point charges in /Mol/           I                0
Number of translation vectors              I                0
Atomic numbers                             I   N=           5
           1           8           8           7           8
Nuclear charges                            R   N=           5
  1.00000000E+00  8.00000000E+00  8.00000000E+00  7.00000000E+00  8.00000000E+00
Current cartesian coordinates              R   N=          15
  2.13297719E+00 -1.11381885E+00  0.00000000E+00  2.49984854E+00  7.11774738E-01
  0.00000000E+00 -7.75437085E-18  1.72169378E+00  0.00000000E+00 -1.87943605E+00
 -8.92113538E-02  0.00000000E+00 -1.12196414E+00 -2.21618123E+00  0.00000000E+00
Number of symbols in /Mol/                 I                0
Force Field                                I                0
Atom Types                                 C   N=           5
                                                            
Int Atom Types                             I   N=           5
           0           0           0           0           0
MM charges                                 R   N=           5
  0.00000000E+00  0.00000000E+00  0.00000000E+00  0.00000000E+00  0.00000000E+00
Integer atomic weights                     I   N=           5
           1          16          16          14          16
Real atomic weights                        R   N=           5
  1.00782504E+00  1.59949146E+01  1.59949146E+01  1.40030740E+01  1.59949146E+01
Atom fragment info                         I   N=           5
           0           0           0           0           0
Atom residue num                           I   N=           5
           0           0           0           0           0
Nuclear spins                              I   N=           5
           1           0           0           2           0
Nuclear ZEff                               R   N=           5
 -1.00000000E+00 -5.60000000E+00 -5.60000000E+00 -4.55000000E+00 -5.60000000E+00
Nuclear ZNuc                               R   N=           5
  1.00000000E+00  8.00000000E+00  8.00000000E+00  7.00000000E+00  8.00000000E+00
Nuclear QMom                               R   N=           5
  0.00000000E+00  0.00000000E+00  0.00000000E+00  2.04400000E+00  0.00000000E+00
Nuclear GFac                               R   N=           5
  2.79284600E+00  0.00000000E+00  0.00000000E+00  4.03761000E-01  0.00000000E+00
MicOpt                                     I   N=           5
          -1          -1          -1          -1          -1
Number of residues                         I                0
Number of secondary structures             I                0
SymInf integers                            I   N=          26
           1           2           1           1           1           1
           1          -1           0           0           0           0
           0           0           0           0           0           0
           0           0           0           0           0           0
           0           0
RotTr to input orientation                 R   N=          12
 -9.80399255E-01  0.00000000E+00  1.97021069E-01  1.97021069E-01  0.00000000E+00
  9.80399255E-01  0.00000000E+00  1.00000000E+00  0.00000000E+00  2.31061503E+00
  0.00000000E+00  6.71745725E-01
Number of contracted shells                I               65
Number of primitive shells                 I              119
Pure/Cartesian d shells                    I                0
Pure/Cartesian f shells                    I                0
Highest angular momentum                   I                3
Largest degree of contraction              I                7
Shell types                                I   N=          65
           0           0           0           0           1           1
           1          -2          -2           0           0           0
           0           0           1           1           1           1
          -2          -2          -2          -3          -3           0
           0           0           0           0           1           1
           1           1          -2          -2          -2          -3
          -3           0           0           0           0           0
           1           1           1           1          -2          -2
          -2          -3          -3           0           0           0
           0           0           1           1           1           1
          -2          -2          -2          -3          -3
Number of primitives per shell             I   N=          65
           3           1           1           1           1           1
           1           1           1           7           6           1
           1           1           3           1           1           1
           1           1           1           1           1           7
           6           1           1           1           3           1
           1           1           1           1           1           1
           1           7           6           1           1           1
           3           1           1           1           1           1
           1           1           1           7           6           1
           1           1           3           1           1           1
           1           1           1           1           1
Shell to atom map                          I   N=          65
           1           1           1           1           1           1
           1           1           1           2           2           2
           2           2           2           2           2           2
           2           2           2           2           2           3
           3           3           3           3           3           3
           3           3           3           3           3           3
           3           4           4           4           4           4
           4           4           4           4           4           4
           4           4           4           5           5           5
           5           5           5           5           5           5
           5           5           5           5           5
Primitive exponents                        R   N=         119
  3.38700000E+01  5.09500000E+00  1.15900000E+00  3.25800000E-01  1.02700000E-01
  2.52600000E-02  1.40700000E+00  3.88000000E-01  1.02000000E-01  1.05700000E+00
  2.47000000E-01  1.53300000E+04  2.29900000E+03  5.22400000E+02  1.47300000E+02
  4.75500000E+01  1.67600000E+01  6.20700000E+00  5.22400000E+02  1.47300000E+02
  4.75500000E+01  1.67600000E+01  6.20700000E+00  6.88200000E-01  1.75200000E+00
  2.38400000E-01  7.37600000E-02  3.44600000E+01  7.74900000E+00  2.28000000E+00
  7.15600000E-01  2.14000000E-01  5.97400000E-02  2.31400000E+00  6.45000000E-01
  2.14000000E-01  1.42800000E+00  5.00000000E-01  1.53300000E+04  2.29900000E+03
  5.22400000E+02  1.47300000E+02  4.75500000E+01  1.67600000E+01  6.20700000E+00
  5.22400000E+02  1.47300000E+02  4.75500000E+01  1.67600000E+01  6.20700000E+00
  6.88200000E-01  1.75200000E+00  2.38400000E-01  7.37600000E-02  3.44600000E+01
  7.74900000E+00  2.28000000E+00  7.15600000E-01  2.14000000E-01  5.97400000E-02
  2.31400000E+00  6.45000000E-01  2.14000000E-01  1.42800000E+00  5.00000000E-01
  1.14200000E+04  1.71200000E+03  3.89300000E+02  1.10000000E+02  3.55700000E+01
  1.25400000E+01  4.64400000E+00  3.89300000E+02  1.10000000E+02  3.55700000E+01
  1.25400000E+01  4.64400000E+00  5.11800000E-01  1.29300000E+00  1.78700000E-01
  5.76000000E-02  2.66300000E+01  5.94800000E+00  1.74200000E+00  5.55000000E-01
  1.72500000E-01  4.91000000E-02  1.65400000E+00  4.69000000E-01  1.51000000E-01
  1.09300000E+00  3.64000000E-01  1.53300000E+04  2.29900000E+03  5.22400000E+02
  1.47300000E+02  4.75500000E+01  1.67600000E+01  6.20700000E+00  5.22400000E+02
  1.47300000E+02  4.75500000E+01  1.67600000E+01  6.20700000E+00  6.88200000E-01
  1.75200000E+00  2.38400000E-01  7.37600000E-02  3.44600000E+01  7.74900000E+00
  2.28000000E+00  7.15600000E-01  2.14000000E-01  5.97400000E-02  2.31400000E+00
  6.45000000E-01  2.14000000E-01  1.42800000E+00  5.00000000E-01
Contraction coefficients                   R   N=         119
  2.54948632E-02  1.90362766E-01  8.52162022E-01  1.00000000E+00  1.00000000E+00
  1.00000000E+00  1.00000000E+00  1.00000000E+00  1.00000000E+00  1.00000000E+00
  1.00000000E+00  5.19808943E-04  4.02025621E-03  2.07128267E-02  8.10105536E-02
  2.35962985E-01  4.42653446E-01  3.57064423E-01 -4.42115008E-05 -1.22591041E-03
 -1.05517725E-02 -6.74452633E-02 -1.71198607E-01  1.07329856E+00  1.00000000E+00
  1.00000000E+00  1.00000000E+00  4.11634896E-02  2.57762836E-01  8.02419274E-01
  1.00000000E+00  1.00000000E+00  1.00000000E+00  1.00000000E+00  1.00000000E+00
  1.00000000E+00  1.00000000E+00  1.00000000E+00  5.19808943E-04  4.02025621E-03
  2.07128267E-02  8.10105536E-02  2.35962985E-01  4.42653446E-01  3.57064423E-01
 -4.42115008E-05 -1.22591041E-03 -1.05517725E-02 -6.74452633E-02 -1.71198607E-01
  1.07329856E+00  1.00000000E+00  1.00000000E+00  1.00000000E+00  4.11634896E-02
  2.57762836E-01  8.02419274E-01  1.00000000E+00  1.00000000E+00  1.00000000E+00
  1.00000000E+00  1.00000000E+00  1.00000000E+00  1.00000000E+00  1.00000000E+00
  5.34563860E-04  4.13435660E-03  2.12335358E-02  8.25006224E-02  2.38138871E-01
  4.42551547E-01  3.53757422E-01 -4.89867350E-05 -1.19527323E-03 -1.03490714E-02
 -6.48680190E-02 -1.71552477E-01  1.07289568E+00  1.00000000E+00  1.00000000E+00
  1.00000000E+00  3.98072123E-02  2.49002660E-01  8.10479727E-01  1.00000000E+00
  1.00000000E+00  1.00000000E+00  1.00000000E+00  1.00000000E+00  1.00000000E+00
  1.00000000E+00  1.00000000E+00  5.19808943E-04  4.02025621E-03  2.07128267E-02
  8.10105536E-02  2.35962985E-01  4.42653446E-01  3.57064423E-01 -4.42115008E-05
 -1.22591041E-03 -1.05517725E-02 -6.74452633E-02 -1.71198607E-01  1.07329856E+00
  1.00000000E+00  1.00000000E+00  1.00000000E+00  4.11634896E-02  2.57762836E-01
  8.02419274E-01  1.00000000E+00  1.00000000E+00  1.00000000E+00  1.00000000E+00
  1.00000000E+00  1.00000000E+00  1.00000000E+00  1.00000000E+00
Coordinates of each shell                  R   N=         195
  2.13297719E+00 -1.11381885E+00  0.00000000E+00  2.13297719E+00 -1.11381885E+00
  0.00000000E+00  2.13297719E+00 -1.11381885E+00  0.00000000E+00  2.13297719E+00
 -1.11381885E+00  0.00000000E+00  2.13297719E+00 -1.11381885E+00  0.00000000E+00
  2.13297719E+00 -1.11381885E+00  0.00000000E+00  2.13297719E+00 -1.11381885E+00
  0.00000000E+00  2.13297719E+00 -1.11381885E+00  0.00000000E+00  2.13297719E+00
 -1.11381885E+00  0.00000000E+00  2.49984854E+00  7.11774738E-01  0.00000000E+00
  2.49984854E+00  7.11774738E-01  0.00000000E+00  2.49984854E+00  7.11774738E-01
  0.00000000E+00  2.49984854E+00  7.11774738E-01  0.00000000E+00  2.49984854E+00
  7.11774738E-01  0.00000000E+00  2.49984854E+00  7.11774738E-01  0.00000000E+00
  2.49984854E+00  7.11774738E-01  0.00000000E+00  2.49984854E+00  7.11774738E-01
  0.00000000E+00  2.49984854E+00  7.11774738E-01  0.00000000E+00  2.49984854E+00
  7.11774738E-01  0.00000000E+00  2.49984854E+00  7.11774738E-01  0.00000000E+00
  2.49984854E+00  7.11774738E-01  0.00000000E+00  2.49984854E+00  7.11774738E-01
  0.00000000E+00  2.49984854E+00  7.11774738E-01  0.00000000E+00 -5.28169126E-17
  1.72169378E+00  0.00000000E+00 -5.28169126E-17  1.72169378E+00  0.00000000E+00
 -5.28169126E-17  1.72169378E+00  0.00000000E+00 -5.28169126E-17  1.72169378E+00
  0.00000000E+00 -5.28169126E-17  1.72169378E+00  0.00000000E+00 -5.28169126E-17
  1.72169378E+00  0.00000000E+00 -5.28169126E-17  1.72169378E+00  0.00000000E+00
 -5.28169126E-17  1.72169378E+00  0.00000000E+00 -5.28169126E-17  1.72169378E+00
  0.00000000E+00 -5.28169126E-17  1.72169378E+00  0.00000000E+00 -5.28169126E-17
  1.72169378E+00  0.00000000E+00 -5.28169126E-17  1.72169378E+00  0.00000000E+00
 -5.28169126E-17  1.72169378E+00  0.00000000E+00 -5.28169126E-17  1.72169378E+00
  0.00000000E+00 -1.87943605E+00 -8.92113538E-02  0.00000000E+00 -1.87943605E+00
 -8.92113538E-02  0.00000000E+00 -1.87943605E+00 -8.92113538E-02  0.00000000E+00
 -1.87943605E+00 -8.92113538E-02  0.00000000E+00 -1.87943605E+00 -8.92113538E-02
  0.00000000E+00 -1.87943605E+00 -8.92113538E-02  0.00000000E+00 -1.87943605E+00
 -8.92113538E-02  0.00000000E+00 -1.87943605E+00 -8.92113538E-02  0.00000000E+00
 -1.87943605E+00 -8.92113538E-02  0.00000000E+00 -1.87943605E+00 -8.92113538E-02
  0.00000000E+00 -1.87943605E+00 -8.92113538E-02  0.00000000E+00 -1.87943605E+00
 -8.92113538E-02  0.00000000E+00 -1.87943605E+00 -8.92113538E-02  0.00000000E+00
 -1.87943605E+00 -8.92113538E-02  0.00000000E+00 -1.12196414E+00 -2.21618123E+00
  0.00000000E+00 -1.12196414E+00 -2.21618123E+00  0.00000000E+00 -1.12196414E+00
 -2.21618123E+00  0.00000000E+00 -1.12196414E+00 -2.21618123E+00  0.00000000E+00
 -1.12196414E+00 -2.21618123E+00  0.00000000E+00 -1.12196414E+00 -2.21618123E+00
  0.00000000E+00 -1.12196414E+00 -2.21618123E+00  0.00000000E+00 -1.12196414E+00
 -2.21618123E+00  0.00000000E+00 -1.12196414E+00 -2.21618123E+00  0.00000000E+00
 -1.12196414E+00 -2.21618123E+00  0.00000000E+00 -1.12196414E+00 -2.21618123E+00
  0.00000000E+00 -1.12196414E+00 -2.21618123E+00  0.00000000E+00 -1.12196414E+00
 -2.21618123E+00  0.00000000E+00 -1.12196414E+00 -2.21618123E+00  0.00000000E+00
Num ILSW                                   I              100
ILSW                                       I   N=         100
           0           0           0           0           2           0
           0           0           0           0           0          -1
           5           0           0           0           2           0
           0           0           0           0           1           0
           1           0           0           0           0           0
           0           0      100000           0          -1           0
           0           0           0           0           0           0
           0           0           0           1           1           0
           0 -2000000000           1           0           0           0
           0           0           4          52           0           0
           0           0           0           0           0           0
           0           0           0           5           4           1
           0           0           0           0           0           0
           0           0           0           0           0           0
           0           0           0           0           0           0
           0           0           0           0           0           0
           0           0           0           0
Num RLSW                                   I               52
RLSW                                       R   N=          52
  1.00000000E+00  1.00000000E+00  1.00000000E+00  1.00000000E+00  1.00000000E+00
  0.00000000E+00  0.00000000E+00  1.00000000E+00  0.00000000E+00  0.00000000E+00
  0.00000000E+00  0.00000000E+00  1.00000000E+00  0.00000000E+00  0.00000000E+00
  0.00000000E+00  0.00000000E+00  1.00000000E+00  0.00000000E+00  0.00000000E+00
  0.00000000E+00  0.00000000E+00  1.00000000E+00  0.00000000E+00  0.00000000E+00
  0.00000000E+00  0.00000000E+00  1.00000000E+00  0.00000000E+00  0.00000000E+00
  0.00000000E+00  0.00000000E+00  1.00000000E+00  0.00000000E+00  0.00000000E+00
  0.00000000E+00  0.00000000E+00  0.00000000E+00  1.00000000E+00  1.00000000E+00
  0.00000000E+00  1.00000000E+00  0.00000000E+00  0.00000000E+00  0.00000000E+00
  0.00000000E+00  0.00000000E+00  0.00000000E+00  0.00000000E+00  0.00000000E+00
  0.00000000E+00  0.00000000E+00
MxBond                                     I                2
NBond                                      I   N=           5
           1           2           2           2           1
IBond                                      I   N=          10
           2           0           1           3           2           4
           3           5           4           0
RBond                                      R   N=          10
  1.00000000E+00  0.00000000E+00  1.00000000E+00  1.00000000E+00  1.00000000E+00
  1.00000000E+00  1.00000000E+00  2.00000000E+00  2.00000000E+00  0.00000000E+00
Virial Ratio                               R      2.002250379182343E+00
SCF Energy                                 R     -2.795065466639419E+02
MP2 Energy                                 R     -2.804551778272391E+02
Total Energy                               R     -2.804551778272391E+02
Post-SCF wavefunction norm                 R      1.583763389723585E+00
RMS Force                                  R      1.464467353322484E-03
RMS Density                                R      4.169378867587084E-09
NImag                                      I                0
Job Status                                 I                1
Nuclear derivative order                   I                2
External E-field                           R   N=          35
  0.00000000E+00  0.00000000E+00  0.00000000E+00  0.00000000E+00  0.00000000E+00
  0.00000000E+00  0.00000000E+00  0.00000000E+00  0.00000000E+00  0.00000000E+00
  0.00000000E+00  0.00000000E+00  0.00000000E+00  0.00000000E+00  0.00000000E+00
  0.00000000E+00  0.00000000E+00  0.00000000E+00  0.00000000E+00  0.00000000E+00
  0.00000000E+00  0.00000000E+00  0.00000000E+00  0.00000000E+00  0.00000000E+00
  0.00000000E+00  0.00000000E+00  0.00000000E+00  0.00000000E+00  0.00000000E+00
  0.00000000E+00  0.00000000E+00  0.00000000E+00  0.00000000E+00  0.00000000E+00
IOpCl                                      I                0
IROHF                                      I                0
Alpha Orbital Energies                     R   N=         207
 -2.07186748E+01 -2.06867195E+01 -2.06695237E+01 -1.58260495E+01 -1.64301252E+00
 -1.50527102E+00 -1.29382195E+00 -9.60199725E-01 -8.32927204E-01 -7.58450727E-01
 -7.39255899E-01 -6.38777395E-01 -6.18706505E-01 -6.17776725E-01 -5.04095309E-01
 -4.97220206E-01  3.48814369E-02  6.06569164E-02  9.51620945E-02  1.00712129E-01
  1.19730361E-01  1.22493753E-01  1.48867352E-01  1.51563253E-01  1.77612098E-01
  1.80580704E-01  1.89896763E-01  2.11037653E-01  2.16688156E-01  2.41310998E-01
  2.46464341E-01  2.68978970E-01  3.11423442E-01  3.15465927E-01  3.37946838E-01
  3.44826237E-01  3.47468140E-01  3.91639575E-01  4.47426230E-01  4.88069872E-01
  5.04848005E-01  5.19120050E-01  5.44870836E-01  5.61395277E-01  6.00014644E-01
  6.20467497E-01  6.38380992E-01  6.88929456E-01  7.17410784E-01  7.24784002E-01
  7.42055987E-01  7.61963695E-01  7.66586464E-01  7.95558264E-01  8.05140242E-01
  8.41110714E-01  8.43468449E-01  8.51430626E-01  8.85135428E-01  9.07080159E-01
  9.29357542E-01  9.47809443E-01  9.53652520E-01  1.01857638E+00  1.03021808E+00
  1.05664225E+00  1.06498687E+00  1.09279529E+00  1.14127598E+00  1.15604242E+00
  1.16932341E+00  1.22201320E+00  1.22581069E+00  1.24674043E+00  1.34863073E+00
  1.36561512E+00  1.37454858E+00  1.46747909E+00  1.48504379E+00  1.50598163E+00
  1.53993343E+00  1.59358367E+00  1.59774622E+00  1.60546133E+00  1.62607902E+00
  1.69583185E+00  1.74048484E+00  1.80202909E+00  1.83081023E+00  1.88850306E+00
  1.89270703E+00  1.92688540E+00  1.97848828E+00  1.98801370E+00  2.05118036E+00
  2.12654089E+00  2.12826749E+00  2.16413169E+00  2.18482300E+00  2.24203209E+00
  2.25763589E+00  2.29530339E+00  2.34735687E+00  2.36223663E+00  2.38805517E+00
  2.39992779E+00  2.43179673E+00  2.46811272E+00  2.47621889E+00  2.52691692E+00
  2.53488265E+00  2.54895319E+00  2.55779285E+00  2.61352962E+00  2.62758691E+00
  2.67010346E+00  2.67089872E+00  2.75436557E+00  2.80928008E+00  2.81253889E+00
  2.84217732E+00  2.91544996E+00  2.98518206E+00  3.04614613E+00  3.04667328E+00
  3.11692609E+00  3.11896691E+00  3.16363018E+00  3.21296333E+00  3.30781085E+00
  3.33226981E+00  3.36620105E+00  3.47351833E+00  3.68238450E+00  3.86862275E+00
  3.92121900E+00  4.17915965E+00  4.21732639E+00  4.22246792E+00  4.26113060E+00
  4.36591780E+00  4.50269339E+00  4.50752596E+00  4.55647077E+00  4.59705214E+00
  4.69773137E+00  4.81321570E+00  4.90102573E+00  4.91332611E+00  4.93839515E+00
  4.99941286E+00  5.00653493E+00  5.10855093E+00  5.12974200E+00  5.18143016E+00
  5.24840846E+00  5.25827623E+00  5.31775381E+00  5.32999191E+00  5.35090394E+00
  5.55130365E+00  5.64543638E+00  5.70372043E+00  5.88729393E+00  5.99970372E+00
  6.26690544E+00  6.29670782E+00  6.36103697E+00  6.37857948E+00  6.59673121E+00
  6.65153395E+00  6.65759630E+00  6.68624648E+00  6.72848043E+00  6.79978258E+00
  6.80473003E+00  6.84858372E+00  6.96745967E+00  7.02052817E+00  7.06615114E+00
  7.08086641E+00  7.13599314E+00  7.16529400E+00  7.17489319E+00  7.20251632E+00
  7.24524811E+00  7.24801293E+00  7.27001232E+00  7.34559714E+00  7.38946042E+00
  7.42541544E+00  7.44298239E+00  7.46340322E+00  7.55575237E+00  7.65961554E+00
  7.66488458E+00  7.79558052E+00  7.88111404E+00  7.94750627E+00  8.05122465E+00
  8.30154712E+00  8.49587365E+00  8.65463806E+00  1.36074129E+01  1.47815783E+01
  1.50862385E+01  1.57301346E+01
Alpha MO coefficients                      R   N=       42849
  6.59236929E-05 -5.59544018E-05 -1.12020220E-03  1.50872617E-05 -5.23960376E-05
  4.29065086E-05  0.00000000E+00 -8.49533463E-05 -3.02430488E-04  0.00000000E+00
  1.93017239E-05 -3.47156543E-04  0.00000000E+00  4.36104670E-05  0.00000000E+00
  0.00000000E+00 -2.64734780E-05  1.13258416E-05  2.24469831E-04  0.00000000E+00
  0.00000000E+00 -3.89657143E-05 -2.03555322E-04  3.21026360E-03 -9.58297516E-05
 -9.51651551E-05  3.59628613E-03  2.49966605E-03  1.04632929E-04 -5.22852238E-05
  0.00000000E+00 -7.43560560E-04  2.77600154E-04  0.00000000E+00 -2.03261635E-03
  1.04920719E-03  0.00000000E+00 -5.46084208E-04  4.48468462E-05  0.00000000E+00
  2.04946548E-05  0.00000000E+00  0.00000000E+00 -1.01382021E-05  4.37746581E-05
 -4.46611888E-04  0.00000000E+00  0.00000000E+00  4.49323145E-04 -6.51767211E-04
 -3.68433874E-04  0.00000000E+00  0.00000000E+00  5.72115283E-04 -7.15761541E-04
  0.00000000E+00  7.54241416E-05 -5.19216270E-05  0.00000000E+00  0.00000000E+00
 -3.09903135E-05  1.06718009E-04  0.00000000E+00  2.06722357E-04 -4.64117093E-05
  0.00000000E+00  0.00000000E+00 -1.87255004E-04  2.95063244E-04  9.76901552E-01
 -9.16757562E-03  4.34132886E-02  4.73408872E-04 -2.18755171E-03  4.62684844E-04
 -2.14252760E-03  0.00000000E+00 -3.30679295E-04  2.24177767E-03  0.00000000E+00
 -2.36584711E-03 -4.59801823E-04  0.00000000E+00 -2.44601656E-04  8.79032571E-05
  0.00000000E+00  5.64998471E-06  0.00000000E+00  0.00000000E+00 -3.29560105E-06
  3.92521037E-05  8.31698577E-04  0.00000000E+00  0.00000000E+00 -4.91430195E-04
 -1.83619674E-04 -1.38223080E-04  0.00000000E+00  0.00000000E+00 -5.24481252E-04
  3.58691302E-04  0.00000000E+00 -6.39008059E-06 -7.85584023E-05  0.00000000E+00
  0.00000000E+00 -9.70512547E-06  4.81664803E-05  0.00000000E+00  9.50642174E-05
 -4.69655112E-07  0.00000000E+00  0.00000000E+00 -3.49205239E-04  3.79675242E-04
  1.04981614E-04  4.61670578E-04 -3.23296119E-04 -8.48365348E-04  3.00240557E-04
 -4.51513016E-05 -1.00169544E-04  0.00000000E+00  7.09518704E-04  1.11788439E-03
  0.00000000E+00 -7.63128176E-04 -7.03152761E-04  0.00000000E+00  1.86319861E-04
  2.04761981E-04  0.00000000E+00 -5.31946998E-05  0.00000000E+00  0.00000000E+00
  1.94188378E-05  9.33040258E-05 -4.12965750E-04  0.00000000E+00  0.00000000E+00
  6.01967322E-05  1.08598867E-03  3.02285425E-05  0.00000000E+00  0.00000000E+00
 -3.06476146E-04  2.07603597E-05  0.00000000E+00 -7.91116193E-05 -1.14158226E-04
  0.00000000E+00  0.00000000E+00 -9.45374094E-05  1.06384543E-04  0.00000000E+00
 -1.21278991E-04  5.19428563E-05  0.00000000E+00  0.00000000E+00  2.61920806E-05
  5.30414313E-04 -7.22263802E-04  4.70309296E-05 -7.13629317E-05  1.94269393E-04
 -1.41943356E-04 -2.87703309E-05 -4.20833335E-05  0.00000000E+00  1.67842057E-04
  2.58630940E-04  0.00000000E+00  5.36882785E-04  3.31083785E-04  0.00000000E+00
 -2.11608856E-04 -5.54865435E-05  0.00000000E+00 -1.31685588E-05  0.00000000E+00
  0.00000000E+00  3.72669210E-06  1.48721645E-05 -2.44097043E-06  0.00000000E+00
  0.00000000E+00 -1.68952989E-04  1.16663177E-05 -2.70433963E-05  0.00000000E+00
  0.00000000E+00 -1.70265784E-04 -3.84743808E-05  0.00000000E+00 -5.56666360E-06
 -9.05169036E-06  0.00000000E+00  0.00000000E+00 -2.21656685E-05  9.12685535E-06
  0.00000000E+00  3.93244366E-05  6.01296246E-05  0.00000000E+00  0.00000000E+00
  1.59753243E-04 -1.03569198E-04  4.05882829E-05  6.52539303E-05 -1.28548764E-04
 -2.87629047E-05  1.17951652E-05  5.37565889E-06  0.00000000E+00  2.51128239E-04
  7.21844944E-05  0.00000000E+00  1.35909170E-04  2.96913796E-05  0.00000000E+00
  1.62016306E-05  0.00000000E+00  0.00000000E+00 -1.60274107E-05  1.31654560E-05
  2.76097231E-05  0.00000000E+00  0.00000000E+00 -1.04888699E-04  5.57746812E-05
 -2.65415454E-04  1.58623664E-05 -1.51056565E-05 -5.45998795E-04  1.61764013E-04
  6.36730984E-06  1.41974680E-05  0.00000000E+00  6.80792229E-06 -4.17894617E-05
  0.00000000E+00  1.68892252E-04  1.25040560E-04  0.00000000E+00 -5.05875674E-05
  4.61598102E-05  0.00000000E+00 -3.65770089E-07  0.00000000E+00  0.00000000E+00
 -7.84841913E-06 -1.27636253E-05  1.69355037E-05  0.00000000E+00  0.00000000E+00
  4.10519509E-05  1.10874224E-04  5.69895948E-05  0.00000000E+00  0.00000000E+00
 -1.98410069E-05 -7.08625329E-05  0.00000000E+00  7.29358730E-06  1.10552878E-05
  0.00000000E+00  0.00000000E+00 -4.40600970E-07 -2.26192505E-05  0.00000000E+00
 -1.18296350E-05 -3.26512250E-05  0.00000000E+00  0.00000000E+00  1.66735501E-06
 -2.38178244E-05  7.50544398E-04  2.24342214E-05 -1.84244805E-05  3.00897348E-04
 -3.80940774E-04  1.63414135E-05  2.71813425E-05  0.00000000E+00 -6.50554597E-05
 -1.52921372E-04  0.00000000E+00  1.47722463E-04 -1.92806247E-04  0.00000000E+00
 -1.55475601E-04  1.40479246E-04  0.00000000E+00 -3.97313697E-06  0.00000000E+00
  0.00000000E+00 -2.97669897E-05 -9.55337207E-06 -5.19888632E-05  0.00000000E+00
  0.00000000E+00  8.26637987E-05  1.20760747E-04 -6.59390582E-05  0.00000000E+00
  0.00000000E+00  5.31187383E-05  2.85246116E-05  0.00000000E+00  2.82160703E-06
  3.27172850E-06  0.00000000E+00  0.00000000E+00 -7.58376372E-06 -1.86934460E-06
  0.00000000E+00  4.14680022E-06 -2.48786172E-05  0.00000000E+00  0.00000000E+00
  9.35086312E-05 -1.57353310E-04  2.37573551E-04  1.35984254E-03 -1.47806280E-04
 -6.83435104E-04  8.93072363E-04  6.28192805E-05 -7.11745329E-05  0.00000000E+00
  5.66413345E-04 -2.08607603E-03  0.00000000E+00  1.17767717E-04  4.76705804E-04
  0.00000000E+00  1.81802587E-04 -3.07232109E-04  0.00000000E+00 -1.28008460E-04
  0.00000000E+00  0.00000000E+00 -2.05015056E-04 -1.57489265E-04 -4.60194215E-04
  0.00000000E+00  0.00000000E+00 -6.08117932E-04 -9.14710678E-04 -4.10831040E-05
  0.00000000E+00  0.00000000E+00  6.22811480E-05  1.11527095E-04  0.00000000E+00
  8.48795752E-06  3.67547718E-05  0.00000000E+00  0.00000000E+00 -2.41785607E-05
 -3.87969576E-06  0.00000000E+00 -1.33808835E-04  1.60017722E-04  0.00000000E+00
  0.00000000E+00 -3.14304086E-04 -2.73203273E-05  9.76647082E-01 -9.88705528E-03
  4.35737625E-02  3.67530524E-03 -8.89276776E-04 -4.46848036E-04  2.13237799E-03
  0.00000000E+00  5.06873391E-04 -2.50644303E-03  0.00000000E+00 -5.90830044E-05
  8.06775297E-04  0.00000000E+00  1.05099422E-04 -6.48944651E-05  0.00000000E+00
 -1.94181159E-04  0.00000000E+00  0.00000000E+00 -7.49664374E-05 -4.33164317E-05
  4.09389576E-04  0.00000000E+00  0.00000000E+00  8.61082187E-04  4.79523363E-04
 -2.08159655E-04  0.00000000E+00  0.00000000E+00 -1.34518081E-04 -3.76443545E-05
  0.00000000E+00 -4.08033037E-06  7.04176161E-05  0.00000000E+00  0.00000000E+00
 -3.00103617E-05  1.07265279E-05  0.00000000E+00 -9.00629197E-05  9.21315733E-05
  0.00000000E+00  0.00000000E+00 -1.61491536E-04  2.06513910E-04  3.79805663E-04
  1.99991808E-03  1.27907995E-03 -1.98990071E-05  4.69355377E-05  2.70922067E-04
  0.00000000E+00  3.90445015E-04  1.04260901E-03  0.00000000E+00 -9.15864611E-05
  2.40240824E-04  0.00000000E+00 -2.36942054E-05  0.00000000E+00  0.00000000E+00
  3.09224685E-05 -2.63448163E-05 -2.07952251E-04  0.00000000E+00  0.00000000E+00
 -3.56625834E-04  3.86903481E-04  9.76837103E-01 -9.18488221E-03  4.34603355E-02
  1.52391902E-04 -1.91748004E-03 -2.03057440E-03 -8.70646068E-04  0.00000000E+00
  2.06822367E-03  8.07694865E-04  0.00000000E+00 -4.18003333E-04  6.61704112E-04
  0.00000000E+00  2.24925548E-04 -2.92969644E-04  0.00000000E+00  3.19028492E-05
  0.00000000E+00  0.00000000E+00 -7.62105954E-05  6.00122905E-05  7.66700605E-04
  0.00000000E+00  0.00000000E+00 -2.13845788E-04  3.46124135E-04 -2.33095346E-04
  0.00000000E+00  0.00000000E+00  3.44347472E-04  3.16263570E-06  0.00000000E+00
 -8.03532118E-05  5.22351348E-07  0.00000000E+00  0.00000000E+00  1.76223061E-05