title                                                                   
Freq      RMP2-FC                                                     Aug-CC-pVTZ         
Number of atoms                            I                5
Info1-9                                    I   N=           9
          33          24           0           0           0         100
           6           2           1
Full Title                                 C   N=           1
title       
Route                                      C   N=           4
#p freq mp2/aug-cc-pvtz density=current         
Charge                                     I                0
Multiplicity                               I                1
Number of electrons                        I               32
Number of alpha electrons                  I               16
Number of beta electrons                   I               16
Number of basis functions                  I              207
Number of independent functions            I              207
Number of point charges in /Mol/           I                0
Number of translation vectors              I                0
Atomic numbers                             I   N=           5
           1           8           8           7           8
Nuclear charges                            R   N=           5
  1.00000000E+00  8.00000000E+00  8.00000000E+00  7.00000000E+00  8.00000000E+00
Current cartesian coordinates              R   N=          15
  2.09313712E+00 -1.12724440E+00  0.00000000E+00  2.48548880E+00  6.93043130E-01
  9.86076132E-32  2.71671688E-17  1.73780369E+00  2.46519033E-32 -1.87541913E+00
 -7.72611416E-02  0.00000000E+00 -1.10613919E+00 -2.22233778E+00 -6.16297582E-32
Number of symbols in /Mol/                 I                0
Force Field                                I                0
Atom Types                                 C   N=           5
                                                            
Int Atom Types                             I   N=           5
           0           0           0           0           0
MM charges                                 R   N=           5
  0.00000000E+00  0.00000000E+00  0.00000000E+00  0.00000000E+00  0.00000000E+00
Integer atomic weights                     I   N=           5
           1          16          16          14          16
Real atomic weights                        R   N=           5
  1.00782504E+00  1.59949146E+01  1.59949146E+01  1.40030740E+01  1.59949146E+01
Atom fragment info                         I   N=           5
           0           0           0           0           0
Atom residue num                           I   N=           5
           0           0           0           0           0
Nuclear spins                              I   N=           5
           1           0           0           2           0
Nuclear ZEff                               R   N=           5
 -1.00000000E+00 -5.60000000E+00 -5.60000000E+00 -4.55000000E+00 -5.60000000E+00
Nuclear ZNuc                               R   N=           5
  1.00000000E+00  8.00000000E+00  8.00000000E+00  7.00000000E+00  8.00000000E+00
Nuclear QMom                               R   N=           5
  0.00000000E+00  0.00000000E+00  0.00000000E+00  2.04400000E+00  0.00000000E+00
Nuclear GFac                               R   N=           5
  2.79284600E+00  0.00000000E+00  0.00000000E+00  4.03761000E-01  0.00000000E+00
MicOpt                                     I   N=           5
          -1          -1          -1          -1          -1
Number of residues                         I                0
Number of secondary structures             I                0
SymInf integers                            I   N=          26
           1           2           1           1           1           1
           1          -1           0           0           0           0
           0           0           0           0           0           0
           0           0           0           0           0           0
           0           0
RotTr to input orientation                 R   N=          12
 -9.77549741E-01  1.23978160E-16  2.10704780E-01  2.10704780E-01 -2.67227230E-17
  9.77549741E-01  1.26825424E-16  1.00000000E+00  0.00000000E+00  2.28366143E+00
  0.00000000E+00  6.60903475E-01
Number of contracted shells                I               65
Number of primitive shells                 I              119
Pure/Cartesian d shells                    I                0
Pure/Cartesian f shells                    I                0
Highest angular momentum                   I                3
Largest degree of contraction              I                7
Shell types                                I   N=          65
           0           0           0           0           1           1
           1          -2          -2           0           0           0
           0           0           1           1           1           1
          -2          -2          -2          -3          -3           0
           0           0           0           0           1           1
           1           1          -2          -2          -2          -3
          -3           0           0           0           0           0
           1           1           1           1          -2          -2
          -2          -3          -3           0           0           0
           0           0           1           1           1           1
          -2          -2          -2          -3          -3
Number of primitives per shell             I   N=          65
           3           1           1           1           1           1
           1           1           1           7           6           1
           1           1           3           1           1           1
           1           1           1           1           1           7
           6           1           1           1           3           1
           1           1           1           1           1           1
           1           7           6           1           1           1
           3           1           1           1           1           1
           1           1           1           7           6           1
           1           1           3           1           1           1
           1           1           1           1           1
Shell to atom map                          I   N=          65
           1           1           1           1           1           1
           1           1           1           2           2           2
           2           2           2           2           2           2
           2           2           2           2           2           3
           3           3           3           3           3           3
           3           3           3           3           3           3
           3           4           4           4           4           4
           4           4           4           4           4           4
           4           4           4           5           5           5
           5           5           5           5           5           5
           5           5           5           5           5
Primitive exponents                        R   N=         119
  3.38700000E+01  5.09500000E+00  1.15900000E+00  3.25800000E-01  1.02700000E-01
  2.52600000E-02  1.40700000E+00  3.88000000E-01  1.02000000E-01  1.05700000E+00
  2.47000000E-01  1.53300000E+04  2.29900000E+03  5.22400000E+02  1.47300000E+02
  4.75500000E+01  1.67600000E+01  6.20700000E+00  5.22400000E+02  1.47300000E+02
  4.75500000E+01  1.67600000E+01  6.20700000E+00  6.88200000E-01  1.75200000E+00
  2.38400000E-01  7.37600000E-02  3.44600000E+01  7.74900000E+00  2.28000000E+00
  7.15600000E-01  2.14000000E-01  5.97400000E-02  2.31400000E+00  6.45000000E-01
  2.14000000E-01  1.42800000E+00  5.00000000E-01  1.53300000E+04  2.29900000E+03
  5.22400000E+02  1.47300000E+02  4.75500000E+01  1.67600000E+01  6.20700000E+00
  5.22400000E+02  1.47300000E+02  4.75500000E+01  1.67600000E+01  6.20700000E+00
  6.88200000E-01  1.75200000E+00  2.38400000E-01  7.37600000E-02  3.44600000E+01
  7.74900000E+00  2.28000000E+00  7.15600000E-01  2.14000000E-01  5.97400000E-02
  2.31400000E+00  6.45000000E-01  2.14000000E-01  1.42800000E+00  5.00000000E-01
  1.14200000E+04  1.71200000E+03  3.89300000E+02  1.10000000E+02  3.55700000E+01
  1.25400000E+01  4.64400000E+00  3.89300000E+02  1.10000000E+02  3.55700000E+01
  1.25400000E+01  4.64400000E+00  5.11800000E-01  1.29300000E+00  1.78700000E-01
  5.76000000E-02  2.66300000E+01  5.94800000E+00  1.74200000E+00  5.55000000E-01
  1.72500000E-01  4.91000000E-02  1.65400000E+00  4.69000000E-01  1.51000000E-01
  1.09300000E+00  3.64000000E-01  1.53300000E+04  2.29900000E+03  5.22400000E+02
  1.47300000E+02  4.75500000E+01  1.67600000E+01  6.20700000E+00  5.22400000E+02
  1.47300000E+02  4.75500000E+01  1.67600000E+01  6.20700000E+00  6.88200000E-01
  1.75200000E+00  2.38400000E-01  7.37600000E-02  3.44600000E+01  7.74900000E+00
  2.28000000E+00  7.15600000E-01  2.14000000E-01  5.97400000E-02  2.31400000E+00
  6.45000000E-01  2.14000000E-01  1.42800000E+00  5.00000000E-01
Contraction coefficients                   R   N=         119
  2.54948632E-02  1.90362766E-01  8.52162022E-01  1.00000000E+00  1.00000000E+00
  1.00000000E+00  1.00000000E+00  1.00000000E+00  1.00000000E+00  1.00000000E+00
  1.00000000E+00  5.19808943E-04  4.02025621E-03  2.07128267E-02  8.10105536E-02
  2.35962985E-01  4.42653446E-01  3.57064423E-01 -4.42115008E-05 -1.22591041E-03
 -1.05517725E-02 -6.74452633E-02 -1.71198607E-01  1.07329856E+00  1.00000000E+00
  1.00000000E+00  1.00000000E+00  4.11634896E-02  2.57762836E-01  8.02419274E-01
  1.00000000E+00  1.00000000E+00  1.00000000E+00  1.00000000E+00  1.00000000E+00
  1.00000000E+00  1.00000000E+00  1.00000000E+00  5.19808943E-04  4.02025621E-03
  2.07128267E-02  8.10105536E-02  2.35962985E-01  4.42653446E-01  3.57064423E-01
 -4.42115008E-05 -1.22591041E-03 -1.05517725E-02 -6.74452633E-02 -1.71198607E-01
  1.07329856E+00  1.00000000E+00  1.00000000E+00  1.00000000E+00  4.11634896E-02
  2.57762836E-01  8.02419274E-01  1.00000000E+00  1.00000000E+00  1.00000000E+00
  1.00000000E+00  1.00000000E+00  1.00000000E+00  1.00000000E+00  1.00000000E+00
  5.34563860E-04  4.13435660E-03  2.12335358E-02  8.25006224E-02  2.38138871E-01
  4.42551547E-01  3.53757422E-01 -4.89867350E-05 -1.19527323E-03 -1.03490714E-02
 -6.48680190E-02 -1.71552477E-01  1.07289568E+00  1.00000000E+00  1.00000000E+00
  1.00000000E+00  3.98072123E-02  2.49002660E-01  8.10479727E-01  1.00000000E+00
  1.00000000E+00  1.00000000E+00  1.00000000E+00  1.00000000E+00  1.00000000E+00
  1.00000000E+00  1.00000000E+00  5.19808943E-04  4.02025621E-03  2.07128267E-02
  8.10105536E-02  2.35962985E-01  4.42653446E-01  3.57064423E-01 -4.42115008E-05
 -1.22591041E-03 -1.05517725E-02 -6.74452633E-02 -1.71198607E-01  1.07329856E+00
  1.00000000E+00  1.00000000E+00  1.00000000E+00  4.11634896E-02  2.57762836E-01
  8.02419274E-01  1.00000000E+00  1.00000000E+00  1.00000000E+00  1.00000000E+00
  1.00000000E+00  1.00000000E+00  1.00000000E+00  1.00000000E+00
Coordinates of each shell                  R   N=         195
  2.09313712E+00 -1.12724440E+00  2.07376168E-32  2.09313712E+00 -1.12724440E+00
  2.07376168E-32  2.09313712E+00 -1.12724440E+00  2.07376168E-32  2.09313712E+00
 -1.12724440E+00  2.07376168E-32  2.09313712E+00 -1.12724440E+00  2.07376168E-32
  2.09313712E+00 -1.12724440E+00  2.07376168E-32  2.09313712E+00 -1.12724440E+00
  2.07376168E-32  2.09313712E+00 -1.12724440E+00  2.07376168E-32  2.09313712E+00
 -1.12724440E+00  2.07376168E-32  2.48548880E+00  6.93043130E-01  4.40143268E-32
  2.48548880E+00  6.93043130E-01  4.40143268E-32  2.48548880E+00  6.93043130E-01
  4.40143268E-32  2.48548880E+00  6.93043130E-01  4.40143268E-32  2.48548880E+00
  6.93043130E-01  4.40143268E-32  2.48548880E+00  6.93043130E-01  4.40143268E-32
  2.48548880E+00  6.93043130E-01  4.40143268E-32  2.48548880E+00  6.93043130E-01
  4.40143268E-32  2.48548880E+00  6.93043130E-01  4.40143268E-32  2.48548880E+00
  6.93043130E-01  4.40143268E-32  2.48548880E+00  6.93043130E-01  4.40143268E-32
  2.48548880E+00  6.93043130E-01  4.40143268E-32  2.48548880E+00  6.93043130E-01
  4.40143268E-32  2.48548880E+00  6.93043130E-01  4.40143268E-32 -8.13133807E-19
  1.73780369E+00  1.65856472E-32 -8.13133807E-19  1.73780369E+00  1.65856472E-32
 -8.13133807E-19  1.73780369E+00  1.65856472E-32 -8.13133807E-19  1.73780369E+00
  1.65856472E-32 -8.13133807E-19  1.73780369E+00  1.65856472E-32 -8.13133807E-19
  1.73780369E+00  1.65856472E-32 -8.13133807E-19  1.73780369E+00  1.65856472E-32
 -8.13133807E-19  1.73780369E+00  1.65856472E-32 -8.13133807E-19  1.73780369E+00
  1.65856472E-32 -8.13133807E-19  1.73780369E+00  1.65856472E-32 -8.13133807E-19
  1.73780369E+00  1.65856472E-32 -8.13133807E-19  1.73780369E+00  1.65856472E-32
 -8.13133807E-19  1.73780369E+00  1.65856472E-32 -8.13133807E-19  1.73780369E+00
  1.65856472E-32 -1.87541913E+00 -7.72611416E-02 -2.89573830E-32 -1.87541913E+00
 -7.72611416E-02 -2.89573830E-32 -1.87541913E+00 -7.72611416E-02 -2.89573830E-32
 -1.87541913E+00 -7.72611416E-02 -2.89573830E-32 -1.87541913E+00 -7.72611416E-02
 -2.89573830E-32 -1.87541913E+00 -7.72611416E-02 -2.89573830E-32 -1.87541913E+00
 -7.72611416E-02 -2.89573830E-32 -1.87541913E+00 -7.72611416E-02 -2.89573830E-32
 -1.87541913E+00 -7.72611416E-02 -2.89573830E-32 -1.87541913E+00 -7.72611416E-02
 -2.89573830E-32 -1.87541913E+00 -7.72611416E-02 -2.89573830E-32 -1.87541913E+00
 -7.72611416E-02 -2.89573830E-32 -1.87541913E+00 -7.72611416E-02 -2.89573830E-32
 -1.87541913E+00 -7.72611416E-02 -2.89573830E-32 -1.10613919E+00 -2.22233778E+00
 -3.78544660E-32 -1.10613919E+00 -2.22233778E+00 -3.78544660E-32 -1.10613919E+00
 -2.22233778E+00 -3.78544660E-32 -1.10613919E+00 -2.22233778E+00 -3.78544660E-32
 -1.10613919E+00 -2.22233778E+00 -3.78544660E-32 -1.10613919E+00 -2.22233778E+00
 -3.78544660E-32 -1.10613919E+00 -2.22233778E+00 -3.78544660E-32 -1.10613919E+00
 -2.22233778E+00 -3.78544660E-32 -1.10613919E+00 -2.22233778E+00 -3.78544660E-32
 -1.10613919E+00 -2.22233778E+00 -3.78544660E-32 -1.10613919E+00 -2.22233778E+00
 -3.78544660E-32 -1.10613919E+00 -2.22233778E+00 -3.78544660E-32 -1.10613919E+00
 -2.22233778E+00 -3.78544660E-32 -1.10613919E+00 -2.22233778E+00 -3.78544660E-32
Num ILSW                                   I              100
ILSW                                       I   N=         100
           0           0           0           0           2           0
           0           0           0           0           0          -1
           5           0           0           0           2           0
           0           0           0           0           1           0
           1           0           0           0           0           0
           0           0      100000           0          -1           0
           0           0           0           0           0           0
           0           0           0           1           1           0
           0 -2000000000           1           0           0           0
           0           0           4          52           0           0
           0           0           0           0           0           0
           0           0           0           5           4           1
           0           0           0           0           0           0
           0           0           0           0           0           0
           0           0           0           0           0           0
           0           0           0           0           0           0
           0           0           0           0
Num RLSW                                   I               52
RLSW                                       R   N=          52
  1.00000000E+00  1.00000000E+00  1.00000000E+00  1.00000000E+00  1.00000000E+00
  0.00000000E+00  0.00000000E+00  1.00000000E+00  0.00000000E+00  0.00000000E+00
  0.00000000E+00  0.00000000E+00  1.00000000E+00  0.00000000E+00  0.00000000E+00
  0.00000000E+00  0.00000000E+00  1.00000000E+00  0.00000000E+00  0.00000000E+00
  0.00000000E+00  0.00000000E+00  1.00000000E+00  0.00000000E+00  0.00000000E+00
  0.00000000E+00  0.00000000E+00  1.00000000E+00  0.00000000E+00  0.00000000E+00
  0.00000000E+00  0.00000000E+00  1.00000000E+00  0.00000000E+00  0.00000000E+00
  0.00000000E+00  0.00000000E+00  0.00000000E+00  1.00000000E+00  1.00000000E+00
  0.00000000E+00  1.00000000E+00  0.00000000E+00  0.00000000E+00  0.00000000E+00
  0.00000000E+00  0.00000000E+00  0.00000000E+00  0.00000000E+00  0.00000000E+00
  0.00000000E+00  0.00000000E+00
MxBond                                     I                2
NBond                                      I   N=           5
           1           2           2           2           1
IBond                                      I   N=          10
           2           0           1           3           2           4
           3           5           4           0
RBond                                      R   N=          10
  1.00000000E+00  0.00000000E+00  1.00000000E+00  1.00000000E+00  1.00000000E+00
  1.00000000E+00  1.00000000E+00  2.00000000E+00  2.00000000E+00  0.00000000E+00
Virial Ratio                               R      2.002393638038071E+00
SCF Energy                                 R     -2.795043636235264E+02
MP2 Energy                                 R     -2.804550912848154E+02
Total Energy                               R     -2.804550912848154E+02
Post-SCF wavefunction norm                 R      1.584837021283607E+00
RMS Force                                  R      4.926607474739196E-03
RMS Density                                R      5.144700412543984E-09
NImag                                      I                0
Job Status                                 I                1
Nuclear derivative order                   I                2
External E-field                           R   N=          35
  0.00000000E+00  0.00000000E+00  0.00000000E+00  0.00000000E+00  0.00000000E+00
  0.00000000E+00  0.00000000E+00  0.00000000E+00  0.00000000E+00  0.00000000E+00
  0.00000000E+00  0.00000000E+00  0.00000000E+00  0.00000000E+00  0.00000000E+00
  0.00000000E+00  0.00000000E+00  0.00000000E+00  0.00000000E+00  0.00000000E+00
  0.00000000E+00  0.00000000E+00  0.00000000E+00  0.00000000E+00  0.00000000E+00
  0.00000000E+00  0.00000000E+00  0.00000000E+00  0.00000000E+00  0.00000000E+00
  0.00000000E+00  0.00000000E+00  0.00000000E+00  0.00000000E+00  0.00000000E+00
IOpCl                                      I                0
IROHF                                      I                0
Alpha Orbital Energies                     R   N=         207
 -2.07223300E+01 -2.06866958E+01 -2.06692647E+01 -1.58278247E+01 -1.63838527E+00
 -1.50234456E+00 -1.29486759E+00 -9.62032435E-01 -8.32393288E-01 -7.56615348E-01
 -7.38388337E-01 -6.37283922E-01 -6.18510732E-01 -6.15790161E-01 -5.06679632E-01
 -4.98211698E-01  3.51370225E-02  5.68199431E-02  9.50361693E-02  1.00313662E-01
  1.19969371E-01  1.22495013E-01  1.49325004E-01  1.52014644E-01  1.77204145E-01
  1.80423020E-01  1.89762864E-01  2.11010453E-01  2.16647549E-01  2.41475101E-01
  2.46151571E-01  2.68738200E-01  3.12598688E-01  3.16907768E-01  3.38064199E-01
  3.42525273E-01  3.46043450E-01  3.92133076E-01  4.49160183E-01  4.87938926E-01
  5.05002422E-01  5.17672021E-01  5.44499636E-01  5.61606763E-01  5.94893827E-01
  6.18371303E-01  6.37206177E-01  6.91246552E-01  7.17330336E-01  7.23855635E-01
  7.41218177E-01  7.64316506E-01  7.67389909E-01  7.95405150E-01  8.05639915E-01
  8.38423973E-01  8.42488501E-01  8.51412854E-01  8.84102364E-01  9.07174678E-01
  9.29719929E-01  9.45536528E-01  9.54236947E-01  1.01796728E+00  1.03255015E+00
  1.06333150E+00  1.06585147E+00  1.09495519E+00  1.14409361E+00  1.15640893E+00
  1.16781502E+00  1.22125742E+00  1.22690726E+00  1.24526059E+00  1.35463107E+00
  1.36088730E+00  1.37016157E+00  1.46818518E+00  1.48468018E+00  1.50458457E+00
  1.54281276E+00  1.59606487E+00  1.59685216E+00  1.60419919E+00  1.62783277E+00
  1.69340431E+00  1.74038790E+00  1.79906852E+00  1.82977792E+00  1.88490806E+00
  1.89482053E+00  1.93092279E+00  1.97814848E+00  1.98925349E+00  2.05475316E+00
  2.12143630E+00  2.12983949E+00  2.16504628E+00  2.18889512E+00  2.24327315E+00
  2.26000901E+00  2.29346967E+00  2.35163005E+00  2.36528975E+00  2.38503728E+00
  2.39850510E+00  2.43224994E+00  2.47053703E+00  2.47864021E+00  2.53001313E+00
  2.53694888E+00  2.54668774E+00  2.55538208E+00  2.61211425E+00  2.62966991E+00
  2.66872137E+00  2.66959639E+00  2.75126372E+00  2.80738424E+00  2.81416596E+00
  2.83919251E+00  2.91774863E+00  2.98176725E+00  3.04245044E+00  3.04919569E+00
  3.11415094E+00  3.11935093E+00  3.17214682E+00  3.21303494E+00  3.30614050E+00
  3.33219209E+00  3.35963364E+00  3.47618365E+00  3.66877211E+00  3.86840024E+00
  3.93117159E+00  4.18405009E+00  4.22066976E+00  4.22242302E+00  4.24965396E+00
  4.36875740E+00  4.49570719E+00  4.52824973E+00  4.54556434E+00  4.59778365E+00
  4.69058338E+00  4.80522475E+00  4.89664627E+00  4.91463752E+00  4.93704304E+00
  5.00039679E+00  5.00629527E+00  5.10444863E+00  5.12528442E+00  5.17903074E+00
  5.24038874E+00  5.25690430E+00  5.31516163E+00  5.34285919E+00  5.35728649E+00
  5.55549348E+00  5.62861326E+00  5.70002692E+00  5.89308398E+00  5.98827070E+00
  6.26325405E+00  6.29386842E+00  6.35886015E+00  6.37504423E+00  6.59668736E+00
  6.65767552E+00  6.65804761E+00  6.68810962E+00  6.72177549E+00  6.80099730E+00
  6.80377183E+00  6.84314167E+00  6.96425360E+00  7.02024730E+00  7.06506597E+00
  7.07762975E+00  7.13313137E+00  7.16935239E+00  7.17047091E+00  7.19962391E+00
  7.23313114E+00  7.24546124E+00  7.26053815E+00  7.34539815E+00  7.38596011E+00
  7.42355482E+00  7.43867292E+00  7.45250952E+00  7.54177176E+00  7.66201654E+00
  7.66279008E+00  7.78963942E+00  7.88007987E+00  7.94749840E+00  8.05264123E+00
  8.30604354E+00  8.49932082E+00  8.64739409E+00  1.35940489E+01  1.46773471E+01
  1.50641771E+01  1.55172586E+01
Alpha MO coefficients                      R   N=       42849
  6.47434539E-05 -1.68441320E-05 -1.14667918E-03  1.06269262E-05 -5.15176786E-05
  4.21811774E-05  0.00000000E+00 -9.09753808E-05 -2.89857346E-04  0.00000000E+00
  1.93974949E-06 -3.57591060E-04  0.00000000E+00  4.20575819E-05  0.00000000E+00
  0.00000000E+00 -2.45820505E-05  1.30931441E-05  2.31788601E-04  0.00000000E+00
  0.00000000E+00 -4.03326466E-05 -2.13531886E-04  2.98174607E-03 -9.32049442E-05
 -1.03337974E-04  3.55066569E-03  2.49997874E-03  1.02763737E-04 -5.31304277E-05
  0.00000000E+00 -7.29612158E-04  2.85300802E-04  0.00000000E+00 -1.97010281E-03
  1.11752661E-03  0.00000000E+00 -5.40160892E-04  3.79688206E-05  0.00000000E+00
  2.04631868E-05  0.00000000E+00  0.00000000E+00 -8.87171420E-06  4.41095412E-05
 -4.43163359E-04  0.00000000E+00  0.00000000E+00  4.27142518E-04 -6.62305246E-04
 -3.61849267E-04  0.00000000E+00  0.00000000E+00  5.42119306E-04 -7.48773684E-04
  0.00000000E+00  7.41100773E-05 -5.24512977E-05  0.00000000E+00  0.00000000E+00
 -2.69659056E-05  1.07976926E-04  0.00000000E+00  2.07111570E-04 -5.10985763E-05
  0.00000000E+00  0.00000000E+00 -1.69717331E-04  3.00395982E-04  9.76907477E-01
 -9.17229501E-03  4.34017960E-02  4.63607540E-04 -2.22714530E-03  4.40723789E-04
 -2.15575376E-03  0.00000000E+00 -3.08754884E-04  2.26136091E-03  0.00000000E+00
 -2.30864977E-03 -4.80459341E-04  0.00000000E+00 -2.24150913E-04  1.00636701E-04
  0.00000000E+00  6.67264585E-06  0.00000000E+00  0.00000000E+00 -3.91626521E-06
  3.69024091E-05  8.27918545E-04  0.00000000E+00  0.00000000E+00 -4.75327570E-04
 -1.74001725E-04 -1.38670078E-04  0.00000000E+00  0.00000000E+00 -5.55117234E-04
  3.55172195E-04  0.00000000E+00 -6.92763950E-06 -7.96226890E-05  0.00000000E+00
  0.00000000E+00 -9.12052683E-06  4.83951124E-05  0.00000000E+00  9.23702603E-05
  8.90748142E-07  0.00000000E+00  0.00000000E+00 -3.34960998E-04  3.81852704E-04
  1.06716749E-04  4.71355434E-04 -3.24207146E-04 -7.57698406E-04  3.79627803E-04
 -4.46666617E-05 -1.00230219E-04  0.00000000E+00  7.04939982E-04  1.10010349E-03
  0.00000000E+00 -7.42280113E-04 -6.51581907E-04  0.00000000E+00  1.96947505E-04
  2.07678031E-04  0.00000000E+00 -5.30359220E-05  0.00000000E+00  0.00000000E+00
  1.90540620E-05  9.24930957E-05 -4.18493192E-04  0.00000000E+00  0.00000000E+00
  3.55920526E-05  1.08276408E-03  2.22565989E-05  0.00000000E+00  0.00000000E+00
 -3.18451002E-04  3.34727950E-05  0.00000000E+00 -7.88277898E-05 -1.13622490E-04
  0.00000000E+00  0.00000000E+00 -9.74074628E-05  1.07969463E-04  0.00000000E+00
 -1.25031796E-04  4.41892146E-05  0.00000000E+00  0.00000000E+00  1.13712338E-05
  5.22623851E-04 -6.35433724E-04  4.02698665E-05 -6.74065904E-05  1.81565189E-04
 -1.99865803E-04 -2.95825785E-05 -4.10461821E-05  0.00000000E+00  1.69815035E-04
  2.43712053E-04  0.00000000E+00  5.45643695E-04  2.96701426E-04  0.00000000E+00
 -2.12033820E-04 -6.55505653E-05  0.00000000E+00 -1.24703635E-05  0.00000000E+00
  0.00000000E+00  3.78072552E-06  1.38701074E-05 -3.10411042E-06  0.00000000E+00
  0.00000000E+00 -1.63011109E-04  1.97467903E-05 -1.92749736E-05  0.00000000E+00
  0.00000000E+00 -1.62592048E-04 -3.18723524E-05  0.00000000E+00 -6.69047339E-06
 -9.55781149E-06  0.00000000E+00  0.00000000E+00 -2.27287888E-05  8.69734770E-06
  0.00000000E+00  3.92725460E-05  6.04489546E-05  0.00000000E+00  0.00000000E+00
  1.52474063E-04 -1.05054995E-04  4.07556007E-05  6.48269851E-05 -1.41045427E-04
 -3.43931849E-05  1.77625740E-05  1.13256372E-05  0.00000000E+00  2.41262010E-04
  6.80552493E-05  0.00000000E+00  1.30894032E-04  2.27719199E-05  0.00000000E+00
  1.29915539E-05  0.00000000E+00  0.00000000E+00 -1.33090540E-05  1.59626274E-05
  2.52350631E-05  0.00000000E+00  0.00000000E+00 -1.05784486E-04  6.22047634E-05
 -2.87500138E-04  2.88226789E-05 -1.78747478E-05 -5.66676546E-04  1.71168161E-04
  8.69831417E-06  1.32707784E-05  0.00000000E+00 -6.99162799E-06 -3.82671912E-05
  0.00000000E+00  2.06413332E-04  1.34207899E-04  0.00000000E+00 -4.81590537E-05
  4.63619173E-05  0.00000000E+00 -1.45802231E-06  0.00000000E+00  0.00000000E+00
 -8.59712646E-06 -1.17758750E-05  2.03303460E-05  0.00000000E+00  0.00000000E+00
  5.49988256E-05  1.06991942E-04  6.10375568E-05  0.00000000E+00  0.00000000E+00
 -3.96553280E-05 -8.63113465E-05  0.00000000E+00  8.18824398E-06  9.84595321E-06
  0.00000000E+00  0.00000000E+00 -1.50195257E-06 -2.47522732E-05  0.00000000E+00
 -1.42639350E-05 -3.48452091E-05  0.00000000E+00  0.00000000E+00 -4.40966356E-06
 -1.69407285E-05  6.62754157E-04  2.48318978E-05 -2.07486645E-05  2.43045739E-04
 -4.56377687E-04  1.50439744E-05  2.78877883E-05  0.00000000E+00 -5.88589498E-05
 -1.54211081E-04  0.00000000E+00  2.20330640E-04 -2.10664514E-04  0.00000000E+00
 -1.48510550E-04  1.52080104E-04  0.00000000E+00 -4.20569215E-06  0.00000000E+00
  0.00000000E+00 -2.65697382E-05 -1.03505373E-05 -4.86238312E-05  0.00000000E+00
  0.00000000E+00  5.96111347E-05  1.20849271E-04 -5.61244788E-05  0.00000000E+00
  0.00000000E+00  1.43418279E-05  1.16237380E-05  0.00000000E+00  2.69725963E-06
  3.84484610E-06  0.00000000E+00  0.00000000E+00 -8.09643741E-06 -3.48180397E-07
  0.00000000E+00  1.88502134E-06 -2.61361502E-05  0.00000000E+00  0.00000000E+00
  1.03943788E-04 -1.42576558E-04  2.32994049E-04  1.32486302E-03 -1.89209576E-04
 -4.36888207E-04  1.00371682E-03  5.48351188E-05 -4.73974044E-05  0.00000000E+00
  5.67786145E-04 -2.08881657E-03  0.00000000E+00  1.67510363E-04  4.49849559E-04
  0.00000000E+00  1.99690005E-04 -3.17336335E-04  0.00000000E+00 -1.27682636E-04
  0.00000000E+00  0.00000000E+00 -2.01193012E-04 -1.57994545E-04 -4.89324152E-04
  0.00000000E+00  0.00000000E+00 -6.66495597E-04 -9.31422946E-04 -6.34357567E-05
  0.00000000E+00  0.00000000E+00  2.54304139E-05  1.10690134E-04  0.00000000E+00
  3.75731160E-06  5.19185127E-05  0.00000000E+00  0.00000000E+00 -4.38493015E-05
  8.22676997E-06  0.00000000E+00 -1.38697799E-04  1.59070627E-04  0.00000000E+00
  0.00000000E+00 -3.42266052E-04 -3.66532389E-05  9.76664421E-01 -9.88815359E-03
  4.35473619E-02  3.53948906E-03 -9.62893833E-04 -4.41559484E-04  2.12167652E-03
  0.00000000E+00  5.21767249E-04 -2.53496659E-03  0.00000000E+00 -4.07670259E-05
  7.79350615E-04  0.00000000E+00  1.10465812E-04 -7.26746605E-05  0.00000000E+00
 -1.86085303E-04  0.00000000E+00  0.00000000E+00 -6.57126528E-05 -3.68170065E-05
  4.13212233E-04  0.00000000E+00  0.00000000E+00  8.69227850E-04  4.94426930E-04
 -2.14022306E-04  0.00000000E+00  0.00000000E+00 -1.45667155E-04 -3.52299800E-05
  0.00000000E+00 -6.57665042E-06  7.53073853E-05  0.00000000E+00  0.00000000E+00
 -3.48352689E-05  1.33376228E-05  0.00000000E+00 -8.77490904E-05  8.43483688E-05
  0.00000000E+00  0.00000000E+00 -1.65087807E-04  2.03768543E-04  3.74882483E-04
  1.98561124E-03  1.35908290E-03 -1.74658304E-05  5.04788731E-05  2.67448123E-04
  0.00000000E+00  3.86565358E-04  1.02495330E-03  0.00000000E+00 -1.24686294E-04
  2.30415486E-04  0.00000000E+00 -2.33121929E-05  0.00000000E+00  0.00000000E+00
  3.28259003E-05 -2.87665714E-05 -2.16634503E-04  0.00000000E+00  0.00000000E+00
 -3.50065638E-04  4.08308938E-04  9.76834712E-01 -9.18765435E-03  4.34652893E-02
  1.35336169E-04 -1.88865687E-03 -2.04562058E-03 -8.30121427E-04  0.00000000E+00
  2.08280408E-03  7.65536377E-04  0.00000000E+00 -3.98424405E-04  6.43492533E-04
  0.00000000E+00  2.20484646E-04 -2.98884490E-04  0.00000000E+00  3.08030685E-05
  0.00000000E+00  0.00000000E+00 -7.47995131E-05  6.36533329E-05  7.65734660E-04
  0.00000000E+00  0.00000000E+00 -2.10341333E-04  3.56467668E-04 -2.37864146E-04
  0.00000000E+00  0.00000000E+00  3.33256123E-04 -3.88302526E-07  0.00000000E+00
 -8.05622839E-05  2.05920747E-06  0.00000000E+00  0.00000000E+00  1.59908806E-05