title                                                                   
Freq      RMP2-FC                                                     Aug-CC-pVTZ         
Number of atoms                            I                5
Info1-9                                    I   N=           9
          33          24           0           0           0         100
           6           2           1
Full Title                                 C   N=           1
title       
Route                                      C   N=           4
#p freq mp2/aug-cc-pvtz density=current         
Charge                                     I                0
Multiplicity                               I                1
Number of electrons                        I               32
Number of alpha electrons                  I               16
Number of beta electrons                   I               16
Number of basis functions                  I              207
Number of independent functions            I              207
Number of point charges in /Mol/           I                0
Number of translation vectors              I                0
Atomic numbers                             I   N=           5
           1           8           8           7           8
Nuclear charges                            R   N=           5
  1.00000000E+00  8.00000000E+00  8.00000000E+00  7.00000000E+00  8.00000000E+00
Current cartesian coordinates              R   N=          15
  2.09032654E+00 -1.15718506E+00  0.00000000E+00  2.48667106E+00  6.91796363E-01
  0.00000000E+00  1.44405471E-16  1.73373985E+00  0.00000000E+00 -1.87336121E+00
 -8.34489246E-02  0.00000000E+00 -1.10877082E+00 -2.20787028E+00  0.00000000E+00
Number of symbols in /Mol/                 I                0
Force Field                                I                0
Atom Types                                 C   N=           5
                                                            
Int Atom Types                             I   N=           5
           0           0           0           0           0
MM charges                                 R   N=           5
  0.00000000E+00  0.00000000E+00  0.00000000E+00  0.00000000E+00  0.00000000E+00
Integer atomic weights                     I   N=           5
           1          16          16          14          16
Real atomic weights                        R   N=           5
  1.00782504E+00  1.59949146E+01  1.59949146E+01  1.40030740E+01  1.59949146E+01
Atom fragment info                         I   N=           5
           0           0           0           0           0
Atom residue num                           I   N=           5
           0           0           0           0           0
Nuclear spins                              I   N=           5
           1           0           0           2           0
Nuclear ZEff                               R   N=           5
 -1.00000000E+00 -5.60000000E+00 -5.60000000E+00 -4.55000000E+00 -5.60000000E+00
Nuclear ZNuc                               R   N=           5
  1.00000000E+00  8.00000000E+00  8.00000000E+00  7.00000000E+00  8.00000000E+00
Nuclear QMom                               R   N=           5
  0.00000000E+00  0.00000000E+00  0.00000000E+00  2.04400000E+00  0.00000000E+00
Nuclear GFac                               R   N=           5
  2.79284600E+00  0.00000000E+00  0.00000000E+00  4.03761000E-01  0.00000000E+00
MicOpt                                     I   N=           5
          -1          -1          -1          -1          -1
Number of residues                         I                0
Number of secondary structures             I                0
SymInf integers                            I   N=          26
           1           2           1           1           1           1
           1          -1           0           0           0           0
           0           0           0           0           0           0
           0           0           0           0           0           0
           0           0
RotTr to input orientation                 R   N=          12
 -9.77787871E-01  0.00000000E+00  2.09596947E-01  2.09596947E-01  0.00000000E+00
  9.77787871E-01  0.00000000E+00  1.00000000E+00  0.00000000E+00  2.28643840E+00
  0.00000000E+00  6.93355459E-01
Number of contracted shells                I               65
Number of primitive shells                 I              119
Pure/Cartesian d shells                    I                0
Pure/Cartesian f shells                    I                0
Highest angular momentum                   I                3
Largest degree of contraction              I                7
Shell types                                I   N=          65
           0           0           0           0           1           1
           1          -2          -2           0           0           0
           0           0           1           1           1           1
          -2          -2          -2          -3          -3           0
           0           0           0           0           1           1
           1           1          -2          -2          -2          -3
          -3           0           0           0           0           0
           1           1           1           1          -2          -2
          -2          -3          -3           0           0           0
           0           0           1           1           1           1
          -2          -2          -2          -3          -3
Number of primitives per shell             I   N=          65
           3           1           1           1           1           1
           1           1           1           7           6           1
           1           1           3           1           1           1
           1           1           1           1           1           7
           6           1           1           1           3           1
           1           1           1           1           1           1
           1           7           6           1           1           1
           3           1           1           1           1           1
           1           1           1           7           6           1
           1           1           3           1           1           1
           1           1           1           1           1
Shell to atom map                          I   N=          65
           1           1           1           1           1           1
           1           1           1           2           2           2
           2           2           2           2           2           2
           2           2           2           2           2           3
           3           3           3           3           3           3
           3           3           3           3           3           3
           3           4           4           4           4           4
           4           4           4           4           4           4
           4           4           4           5           5           5
           5           5           5           5           5           5
           5           5           5           5           5
Primitive exponents                        R   N=         119
  3.38700000E+01  5.09500000E+00  1.15900000E+00  3.25800000E-01  1.02700000E-01
  2.52600000E-02  1.40700000E+00  3.88000000E-01  1.02000000E-01  1.05700000E+00
  2.47000000E-01  1.53300000E+04  2.29900000E+03  5.22400000E+02  1.47300000E+02
  4.75500000E+01  1.67600000E+01  6.20700000E+00  5.22400000E+02  1.47300000E+02
  4.75500000E+01  1.67600000E+01  6.20700000E+00  6.88200000E-01  1.75200000E+00
  2.38400000E-01  7.37600000E-02  3.44600000E+01  7.74900000E+00  2.28000000E+00
  7.15600000E-01  2.14000000E-01  5.97400000E-02  2.31400000E+00  6.45000000E-01
  2.14000000E-01  1.42800000E+00  5.00000000E-01  1.53300000E+04  2.29900000E+03
  5.22400000E+02  1.47300000E+02  4.75500000E+01  1.67600000E+01  6.20700000E+00
  5.22400000E+02  1.47300000E+02  4.75500000E+01  1.67600000E+01  6.20700000E+00
  6.88200000E-01  1.75200000E+00  2.38400000E-01  7.37600000E-02  3.44600000E+01
  7.74900000E+00  2.28000000E+00  7.15600000E-01  2.14000000E-01  5.97400000E-02
  2.31400000E+00  6.45000000E-01  2.14000000E-01  1.42800000E+00  5.00000000E-01
  1.14200000E+04  1.71200000E+03  3.89300000E+02  1.10000000E+02  3.55700000E+01
  1.25400000E+01  4.64400000E+00  3.89300000E+02  1.10000000E+02  3.55700000E+01
  1.25400000E+01  4.64400000E+00  5.11800000E-01  1.29300000E+00  1.78700000E-01
  5.76000000E-02  2.66300000E+01  5.94800000E+00  1.74200000E+00  5.55000000E-01
  1.72500000E-01  4.91000000E-02  1.65400000E+00  4.69000000E-01  1.51000000E-01
  1.09300000E+00  3.64000000E-01  1.53300000E+04  2.29900000E+03  5.22400000E+02
  1.47300000E+02  4.75500000E+01  1.67600000E+01  6.20700000E+00  5.22400000E+02
  1.47300000E+02  4.75500000E+01  1.67600000E+01  6.20700000E+00  6.88200000E-01
  1.75200000E+00  2.38400000E-01  7.37600000E-02  3.44600000E+01  7.74900000E+00
  2.28000000E+00  7.15600000E-01  2.14000000E-01  5.97400000E-02  2.31400000E+00
  6.45000000E-01  2.14000000E-01  1.42800000E+00  5.00000000E-01
Contraction coefficients                   R   N=         119
  2.54948632E-02  1.90362766E-01  8.52162022E-01  1.00000000E+00  1.00000000E+00
  1.00000000E+00  1.00000000E+00  1.00000000E+00  1.00000000E+00  1.00000000E+00
  1.00000000E+00  5.19808943E-04  4.02025621E-03  2.07128267E-02  8.10105536E-02
  2.35962985E-01  4.42653446E-01  3.57064423E-01 -4.42115008E-05 -1.22591041E-03
 -1.05517725E-02 -6.74452633E-02 -1.71198607E-01  1.07329856E+00  1.00000000E+00
  1.00000000E+00  1.00000000E+00  4.11634896E-02  2.57762836E-01  8.02419274E-01
  1.00000000E+00  1.00000000E+00  1.00000000E+00  1.00000000E+00  1.00000000E+00
  1.00000000E+00  1.00000000E+00  1.00000000E+00  5.19808943E-04  4.02025621E-03
  2.07128267E-02  8.10105536E-02  2.35962985E-01  4.42653446E-01  3.57064423E-01
 -4.42115008E-05 -1.22591041E-03 -1.05517725E-02 -6.74452633E-02 -1.71198607E-01
  1.07329856E+00  1.00000000E+00  1.00000000E+00  1.00000000E+00  4.11634896E-02
  2.57762836E-01  8.02419274E-01  1.00000000E+00  1.00000000E+00  1.00000000E+00
  1.00000000E+00  1.00000000E+00  1.00000000E+00  1.00000000E+00  1.00000000E+00
  5.34563860E-04  4.13435660E-03  2.12335358E-02  8.25006224E-02  2.38138871E-01
  4.42551547E-01  3.53757422E-01 -4.89867350E-05 -1.19527323E-03 -1.03490714E-02
 -6.48680190E-02 -1.71552477E-01  1.07289568E+00  1.00000000E+00  1.00000000E+00
  1.00000000E+00  3.98072123E-02  2.49002660E-01  8.10479727E-01  1.00000000E+00
  1.00000000E+00  1.00000000E+00  1.00000000E+00  1.00000000E+00  1.00000000E+00
  1.00000000E+00  1.00000000E+00  5.19808943E-04  4.02025621E-03  2.07128267E-02
  8.10105536E-02  2.35962985E-01  4.42653446E-01  3.57064423E-01 -4.42115008E-05
 -1.22591041E-03 -1.05517725E-02 -6.74452633E-02 -1.71198607E-01  1.07329856E+00
  1.00000000E+00  1.00000000E+00  1.00000000E+00  4.11634896E-02  2.57762836E-01
  8.02419274E-01  1.00000000E+00  1.00000000E+00  1.00000000E+00  1.00000000E+00
  1.00000000E+00  1.00000000E+00  1.00000000E+00  1.00000000E+00
Coordinates of each shell                  R   N=         195
  2.09032654E+00 -1.15718506E+00  0.00000000E+00  2.09032654E+00 -1.15718506E+00
  0.00000000E+00  2.09032654E+00 -1.15718506E+00  0.00000000E+00  2.09032654E+00
 -1.15718506E+00  0.00000000E+00  2.09032654E+00 -1.15718506E+00  0.00000000E+00
  2.09032654E+00 -1.15718506E+00  0.00000000E+00  2.09032654E+00 -1.15718506E+00
  0.00000000E+00  2.09032654E+00 -1.15718506E+00  0.00000000E+00  2.09032654E+00
 -1.15718506E+00  0.00000000E+00  2.48667106E+00  6.91796363E-01  0.00000000E+00
  2.48667106E+00  6.91796363E-01  0.00000000E+00  2.48667106E+00  6.91796363E-01
  0.00000000E+00  2.48667106E+00  6.91796363E-01  0.00000000E+00  2.48667106E+00
  6.91796363E-01  0.00000000E+00  2.48667106E+00  6.91796363E-01  0.00000000E+00
  2.48667106E+00  6.91796363E-01  0.00000000E+00  2.48667106E+00  6.91796363E-01
  0.00000000E+00  2.48667106E+00  6.91796363E-01  0.00000000E+00  2.48667106E+00
  6.91796363E-01  0.00000000E+00  2.48667106E+00  6.91796363E-01  0.00000000E+00
  2.48667106E+00  6.91796363E-01  0.00000000E+00  2.48667106E+00  6.91796363E-01
  0.00000000E+00  2.48667106E+00  6.91796363E-01  0.00000000E+00 -4.40548415E-18
  1.73373985E+00  0.00000000E+00 -4.40548415E-18  1.73373985E+00  0.00000000E+00
 -4.40548415E-18  1.73373985E+00  0.00000000E+00 -4.40548415E-18  1.73373985E+00
  0.00000000E+00 -4.40548415E-18  1.73373985E+00  0.00000000E+00 -4.40548415E-18
  1.73373985E+00  0.00000000E+00 -4.40548415E-18  1.73373985E+00  0.00000000E+00
 -4.40548415E-18  1.73373985E+00  0.00000000E+00 -4.40548415E-18  1.73373985E+00
  0.00000000E+00 -4.40548415E-18  1.73373985E+00  0.00000000E+00 -4.40548415E-18
  1.73373985E+00  0.00000000E+00 -4.40548415E-18  1.73373985E+00  0.00000000E+00
 -4.40548415E-18  1.73373985E+00  0.00000000E+00 -4.40548415E-18  1.73373985E+00
  0.00000000E+00 -1.87336121E+00 -8.34489246E-02  0.00000000E+00 -1.87336121E+00
 -8.34489246E-02  0.00000000E+00 -1.87336121E+00 -8.34489246E-02  0.00000000E+00
 -1.87336121E+00 -8.34489246E-02  0.00000000E+00 -1.87336121E+00 -8.34489246E-02
  0.00000000E+00 -1.87336121E+00 -8.34489246E-02  0.00000000E+00 -1.87336121E+00
 -8.34489246E-02  0.00000000E+00 -1.87336121E+00 -8.34489246E-02  0.00000000E+00
 -1.87336121E+00 -8.34489246E-02  0.00000000E+00 -1.87336121E+00 -8.34489246E-02
  0.00000000E+00 -1.87336121E+00 -8.34489246E-02  0.00000000E+00 -1.87336121E+00
 -8.34489246E-02  0.00000000E+00 -1.87336121E+00 -8.34489246E-02  0.00000000E+00
 -1.87336121E+00 -8.34489246E-02  0.00000000E+00 -1.10877082E+00 -2.20787028E+00
  0.00000000E+00 -1.10877082E+00 -2.20787028E+00  0.00000000E+00 -1.10877082E+00
 -2.20787028E+00  0.00000000E+00 -1.10877082E+00 -2.20787028E+00  0.00000000E+00
 -1.10877082E+00 -2.20787028E+00  0.00000000E+00 -1.10877082E+00 -2.20787028E+00
  0.00000000E+00 -1.10877082E+00 -2.20787028E+00  0.00000000E+00 -1.10877082E+00
 -2.20787028E+00  0.00000000E+00 -1.10877082E+00 -2.20787028E+00  0.00000000E+00
 -1.10877082E+00 -2.20787028E+00  0.00000000E+00 -1.10877082E+00 -2.20787028E+00
  0.00000000E+00 -1.10877082E+00 -2.20787028E+00  0.00000000E+00 -1.10877082E+00
 -2.20787028E+00  0.00000000E+00 -1.10877082E+00 -2.20787028E+00  0.00000000E+00
Num ILSW                                   I              100
ILSW                                       I   N=         100
           0           0           0           0           2           0
           0           0           0           0           0          -1
           5           0           0           0           2           0
           0           0           0           0           1           0
           1           0           0           0           0           0
           0           0      100000           0          -1           0
           0           0           0           0           0           0
           0           0           0           1           1           0
           0 -2000000000           1           0           0           0
           0           0           4          52           0           0
           0           0           0           0           0           0
           0           0           0           5           4           1
           0           0           0           0           0           0
           0           0           0           0           0           0
           0           0           0           0           0           0
           0           0           0           0           0           0
           0           0           0           0
Num RLSW                                   I               52
RLSW                                       R   N=          52
  1.00000000E+00  1.00000000E+00  1.00000000E+00  1.00000000E+00  1.00000000E+00
  0.00000000E+00  0.00000000E+00  1.00000000E+00  0.00000000E+00  0.00000000E+00
  0.00000000E+00  0.00000000E+00  1.00000000E+00  0.00000000E+00  0.00000000E+00
  0.00000000E+00  0.00000000E+00  1.00000000E+00  0.00000000E+00  0.00000000E+00
  0.00000000E+00  0.00000000E+00  1.00000000E+00  0.00000000E+00  0.00000000E+00
  0.00000000E+00  0.00000000E+00  1.00000000E+00  0.00000000E+00  0.00000000E+00
  0.00000000E+00  0.00000000E+00  1.00000000E+00  0.00000000E+00  0.00000000E+00
  0.00000000E+00  0.00000000E+00  0.00000000E+00  1.00000000E+00  1.00000000E+00
  0.00000000E+00  1.00000000E+00  0.00000000E+00  0.00000000E+00  0.00000000E+00
  0.00000000E+00  0.00000000E+00  0.00000000E+00  0.00000000E+00  0.00000000E+00
  0.00000000E+00  0.00000000E+00
MxBond                                     I                2
NBond                                      I   N=           5
           1           2           2           2           1
IBond                                      I   N=          10
           2           0           1           3           2           4
           3           5           4           0
RBond                                      R   N=          10
  1.00000000E+00  0.00000000E+00  1.00000000E+00  1.00000000E+00  1.00000000E+00
  1.00000000E+00  1.00000000E+00  2.00000000E+00  2.00000000E+00  0.00000000E+00
Virial Ratio                               R      2.002316262802654E+00
SCF Energy                                 R     -2.795053330497257E+02
MP2 Energy                                 R     -2.804550653311423E+02
Total Energy                               R     -2.804550653311423E+02
Post-SCF wavefunction norm                 R      1.584163323811844E+00
RMS Force                                  R      4.270433771726637E-03
RMS Density                                R      4.637806159291699E-09
NImag                                      I                0
Job Status                                 I                1
Nuclear derivative order                   I                2
External E-field                           R   N=          35
  0.00000000E+00  0.00000000E+00  0.00000000E+00  0.00000000E+00  0.00000000E+00
  0.00000000E+00  0.00000000E+00  0.00000000E+00  0.00000000E+00  0.00000000E+00
  0.00000000E+00  0.00000000E+00  0.00000000E+00  0.00000000E+00  0.00000000E+00
  0.00000000E+00  0.00000000E+00  0.00000000E+00  0.00000000E+00  0.00000000E+00
  0.00000000E+00  0.00000000E+00  0.00000000E+00  0.00000000E+00  0.00000000E+00
  0.00000000E+00  0.00000000E+00  0.00000000E+00  0.00000000E+00  0.00000000E+00
  0.00000000E+00  0.00000000E+00  0.00000000E+00  0.00000000E+00  0.00000000E+00
IOpCl                                      I                0
IROHF                                      I                0
Alpha Orbital Energies                     R   N=         207
 -2.07195775E+01 -2.06874398E+01 -2.06687530E+01 -1.58260250E+01 -1.64404261E+00
 -1.50389149E+00 -1.29102896E+00 -9.59447822E-01 -8.34029218E-01 -7.58744833E-01
 -7.39725473E-01 -6.33891359E-01 -6.18297190E-01 -6.18051617E-01 -5.04870387E-01
 -4.96863339E-01  3.49483491E-02  6.01748431E-02  9.52058456E-02  1.00332175E-01
  1.19832307E-01  1.22640245E-01  1.49047220E-01  1.51915703E-01  1.77778871E-01
  1.80400094E-01  1.89824918E-01  2.10817574E-01  2.16546435E-01  2.43045701E-01
  2.46394795E-01  2.69036001E-01  3.10739541E-01  3.16365949E-01  3.38293165E-01
  3.43929192E-01  3.47050535E-01  3.92606463E-01  4.46666495E-01  4.87417331E-01
  5.04956320E-01  5.18432252E-01  5.44109985E-01  5.61229963E-01  5.98487740E-01
  6.19200325E-01  6.38548083E-01  6.89616399E-01  7.17849275E-01  7.23782655E-01
  7.42998236E-01  7.64095716E-01  7.67467275E-01  7.95556671E-01  8.06338208E-01
  8.38518874E-01  8.43320203E-01  8.51961392E-01  8.85609286E-01  9.08550563E-01
  9.32188287E-01  9.47606620E-01  9.53643515E-01  1.01808040E+00  1.03148097E+00
  1.06357035E+00  1.06510632E+00  1.09431572E+00  1.14379348E+00  1.15556687E+00
  1.16971950E+00  1.22334479E+00  1.22745798E+00  1.24640469E+00  1.35174925E+00
  1.35794218E+00  1.37177282E+00  1.46899220E+00  1.47971385E+00  1.50504273E+00
  1.53953919E+00  1.59451807E+00  1.59736282E+00  1.60587200E+00  1.62917915E+00
  1.69629222E+00  1.73954914E+00  1.80018075E+00  1.82957283E+00  1.88839287E+00
  1.89478098E+00  1.93088674E+00  1.97962153E+00  1.98259818E+00  2.05140563E+00
  2.12310424E+00  2.12795663E+00  2.16265820E+00  2.18771394E+00  2.24394587E+00
  2.26105604E+00  2.29398760E+00  2.35272520E+00  2.36859584E+00  2.38389234E+00
  2.40181311E+00  2.43456915E+00  2.47173120E+00  2.47784140E+00  2.52986015E+00
  2.53634866E+00  2.55043755E+00  2.55813661E+00  2.61562779E+00  2.63261879E+00
  2.67292118E+00  2.67482195E+00  2.75581074E+00  2.80951716E+00  2.82083386E+00
  2.83867008E+00  2.91887671E+00  2.98559704E+00  3.04885904E+00  3.05121677E+00
  3.11517550E+00  3.11797932E+00  3.17157815E+00  3.21456399E+00  3.31006163E+00
  3.32976724E+00  3.35924396E+00  3.47540061E+00  3.67822541E+00  3.86849869E+00
  3.91531738E+00  4.17304861E+00  4.21874665E+00  4.22396388E+00  4.26780374E+00
  4.36889054E+00  4.49927531E+00  4.52312012E+00  4.55483011E+00  4.59244464E+00
  4.69510596E+00  4.79332391E+00  4.89654516E+00  4.91386048E+00  4.92715981E+00
  4.99515705E+00  5.00462830E+00  5.10453025E+00  5.12103175E+00  5.16214533E+00
  5.22706419E+00  5.24490743E+00  5.31272466E+00  5.34143981E+00  5.34819244E+00
  5.54610555E+00  5.64493182E+00  5.70581428E+00  5.88874292E+00  5.99501701E+00
  6.26451495E+00  6.30105685E+00  6.36279985E+00  6.37526856E+00  6.59616596E+00
  6.65814849E+00  6.66125978E+00  6.68908453E+00  6.72676001E+00  6.79619267E+00
  6.80396610E+00  6.85042566E+00  6.96825048E+00  7.00811849E+00  7.06325847E+00
  7.06873797E+00  7.13556004E+00  7.17457686E+00  7.17596680E+00  7.18935292E+00
  7.24206704E+00  7.24370372E+00  7.27249377E+00  7.34934914E+00  7.39323463E+00
  7.41978451E+00  7.44211261E+00  7.45896592E+00  7.55859461E+00  7.66303830E+00
  7.66692014E+00  7.78372812E+00  7.87635406E+00  7.95223879E+00  8.06642064E+00
  8.29494063E+00  8.48639904E+00  8.64675797E+00  1.36135841E+01  1.46483837E+01
  1.50076648E+01  1.57708122E+01
Alpha MO coefficients                      R   N=       42849
  6.22575422E-05 -2.27907285E-05 -1.04771524E-03  1.35068320E-05 -5.19700576E-05
  4.23054498E-05  0.00000000E+00 -7.19150521E-05 -2.97947916E-04  0.00000000E+00
  2.14080189E-06 -3.51742620E-04  0.00000000E+00  4.19317988E-05  0.00000000E+00
  0.00000000E+00 -2.13866253E-05  1.03498866E-05  2.21190317E-04  0.00000000E+00
  0.00000000E+00 -2.21771553E-05 -1.88099128E-04  3.11807462E-03 -9.45641563E-05
 -9.80621476E-05  3.54007981E-03  2.44826498E-03  1.02592156E-04 -5.28095738E-05
  0.00000000E+00 -7.31050164E-04  2.79920736E-04  0.00000000E+00 -2.01536303E-03
  1.11537086E-03  0.00000000E+00 -5.35246194E-04  4.68778036E-05  0.00000000E+00
  1.97955416E-05  0.00000000E+00  0.00000000E+00 -8.87691911E-06  4.35150784E-05
 -4.42536553E-04  0.00000000E+00  0.00000000E+00  4.23152160E-04 -6.55266045E-04
 -3.61292782E-04  0.00000000E+00  0.00000000E+00  5.47562808E-04 -7.26483583E-04
  0.00000000E+00  7.38352251E-05 -5.13499142E-05  0.00000000E+00  0.00000000E+00
 -2.72220877E-05  1.08637156E-04  0.00000000E+00  2.08141202E-04 -5.35310069E-05
  0.00000000E+00  0.00000000E+00 -1.63667665E-04  2.99322231E-04  9.76904162E-01
 -9.17412135E-03  4.34054739E-02  4.94707579E-04 -2.20788374E-03  4.45582803E-04
 -2.14717652E-03  0.00000000E+00 -3.13801587E-04  2.25275495E-03  0.00000000E+00
 -2.32404280E-03 -4.89102653E-04  0.00000000E+00 -2.25002742E-04  9.45237425E-05
  0.00000000E+00  6.86519612E-06  0.00000000E+00  0.00000000E+00 -4.46705125E-06
  3.78995119E-05  8.26150784E-04  0.00000000E+00  0.00000000E+00 -4.73642697E-04
 -1.75830165E-04 -1.41436496E-04  0.00000000E+00  0.00000000E+00 -5.53726881E-04
  3.59798327E-04  0.00000000E+00 -6.96740045E-06 -7.94897917E-05  0.00000000E+00
  0.00000000E+00 -9.11755190E-06  4.78823265E-05  0.00000000E+00  9.32072076E-05
  1.93586440E-06  0.00000000E+00  0.00000000E+00 -3.37863048E-04  3.78230863E-04
  1.04183508E-04  4.56344909E-04 -3.23825485E-04 -8.68027319E-04  3.54709175E-04
 -4.43896018E-05 -1.00115617E-04  0.00000000E+00  6.97480227E-04  1.11097465E-03
  0.00000000E+00 -7.74937238E-04 -6.41248051E-04  0.00000000E+00  1.98504787E-04
  2.13967227E-04  0.00000000E+00 -5.25447110E-05  0.00000000E+00  0.00000000E+00
  1.90114899E-05  9.33960598E-05 -4.15600176E-04  0.00000000E+00  0.00000000E+00
  4.11175595E-05  1.08199805E-03  2.77400732E-05  0.00000000E+00  0.00000000E+00
 -3.18230223E-04  3.34042846E-05  0.00000000E+00 -7.87389950E-05 -1.13618449E-04
  0.00000000E+00  0.00000000E+00 -9.64241391E-05  1.06677419E-04  0.00000000E+00
 -1.24498568E-04  4.64031636E-05  0.00000000E+00  0.00000000E+00  1.34557820E-05
  5.21847370E-04 -7.14439132E-04  4.65276319E-05 -7.08590901E-05  2.21013820E-04
 -1.83104934E-04 -2.93554453E-05 -4.14216839E-05  0.00000000E+00  1.71260125E-04
  2.53063606E-04  0.00000000E+00  5.05377067E-04  3.33748573E-04  0.00000000E+00
 -2.23932868E-04 -6.23077743E-05  0.00000000E+00 -1.29445903E-05  0.00000000E+00
  0.00000000E+00  3.49135128E-06  1.51925293E-05 -2.22197903E-06  0.00000000E+00
  0.00000000E+00 -1.64904683E-04  1.03397278E-05 -1.94825520E-05  0.00000000E+00
  0.00000000E+00 -1.80145215E-04 -4.95245813E-05  0.00000000E+00 -6.11775934E-06
 -9.10788806E-06  0.00000000E+00  0.00000000E+00 -2.11554755E-05  9.56977450E-06
  0.00000000E+00  4.09173058E-05  6.06941812E-05  0.00000000E+00  0.00000000E+00
  1.55489295E-04 -1.04440263E-04  3.89592597E-05  5.91194383E-05 -9.28014117E-05
 -2.92465237E-05  1.96988581E-05  1.35905132E-05  0.00000000E+00  2.36809844E-04
  5.07013380E-05  0.00000000E+00  1.25452547E-04  2.40968328E-05  0.00000000E+00
  1.23488147E-05  0.00000000E+00  0.00000000E+00 -1.12720122E-05  1.80111071E-05
  1.92984829E-05  0.00000000E+00  0.00000000E+00 -8.81502301E-05  6.93954806E-05
 -2.68416275E-04  2.95785080E-05 -1.56028614E-05 -5.32466104E-04  1.47855829E-04
  7.35273105E-06  1.37555019E-05  0.00000000E+00 -1.26795192E-07 -4.45868724E-05
  0.00000000E+00  1.65815876E-04  1.39168915E-04  0.00000000E+00 -4.47252147E-05
  5.37859494E-05  0.00000000E+00 -1.60213804E-06  0.00000000E+00  0.00000000E+00
 -8.54626155E-06 -1.14928668E-05  2.18260272E-05  0.00000000E+00  0.00000000E+00
  5.03854285E-05  1.07761665E-04  6.26933896E-05  0.00000000E+00  0.00000000E+00
 -2.43592147E-05 -7.42838343E-05  0.00000000E+00  7.62461471E-06  1.01990152E-05
  0.00000000E+00  0.00000000E+00 -1.16603502E-06 -2.50687658E-05  0.00000000E+00
 -1.35900392E-05 -3.77330921E-05  0.00000000E+00  0.00000000E+00 -2.00854019E-06
 -1.96899430E-05  7.42801468E-04  2.35646720E-05 -1.87388965E-05  2.96792023E-04
 -3.90767300E-04  1.65253549E-05  2.73261244E-05  0.00000000E+00 -6.59006568E-05
 -1.54111479E-04  0.00000000E+00  1.34833119E-04 -2.03565688E-04  0.00000000E+00
 -1.59040809E-04  1.41039745E-04  0.00000000E+00 -4.12217633E-06  0.00000000E+00
  0.00000000E+00 -2.95461544E-05 -9.95478651E-06 -5.13031589E-05  0.00000000E+00
  0.00000000E+00  7.96916577E-05  1.22619858E-04 -6.43771031E-05  0.00000000E+00
  0.00000000E+00  4.11655396E-05  3.49179813E-05  0.00000000E+00  2.90992021E-06
  3.37265446E-06  0.00000000E+00  0.00000000E+00 -7.99190036E-06 -2.26599497E-06
  0.00000000E+00  4.59800455E-06 -2.51403395E-05  0.00000000E+00  0.00000000E+00
  9.63394911E-05 -1.55314394E-04  2.36879342E-04  1.35640966E-03 -1.46711431E-04
 -7.28164183E-04  9.00336538E-04  6.31070066E-05 -7.11087563E-05  0.00000000E+00
  5.71413007E-04 -2.08174734E-03  0.00000000E+00  9.92779076E-05  4.99221978E-04
  0.00000000E+00  1.85549704E-04 -3.07318196E-04  0.00000000E+00 -1.27851222E-04
  0.00000000E+00  0.00000000E+00 -2.03960514E-04 -1.58257259E-04 -4.58660678E-04
  0.00000000E+00  0.00000000E+00 -5.99737313E-04 -9.22068212E-04 -4.03769503E-05
  0.00000000E+00  0.00000000E+00  5.81501623E-05  1.17083889E-04  0.00000000E+00
  8.30757076E-06  3.68301528E-05  0.00000000E+00  0.00000000E+00 -2.42414927E-05
 -4.66352500E-06  0.00000000E+00 -1.35084005E-04  1.57790651E-04  0.00000000E+00
  0.00000000E+00 -3.15600091E-04 -3.46218915E-05  9.76645921E-01 -9.88457747E-03
  4.35755266E-02  3.69801704E-03 -8.91819667E-04 -4.43535291E-04  2.13153998E-03
  0.00000000E+00  5.10043356E-04 -2.50473482E-03  0.00000000E+00 -7.86630889E-05
  8.23899060E-04  0.00000000E+00  1.04497667E-04 -6.41415908E-05  0.00000000E+00
 -1.93399925E-04  0.00000000E+00  0.00000000E+00 -7.46537254E-05 -4.33713161E-05
  4.08955124E-04  0.00000000E+00  0.00000000E+00  8.58708441E-04  4.82105745E-04
 -2.05940246E-04  0.00000000E+00  0.00000000E+00 -1.43674168E-04 -3.86940828E-05
  0.00000000E+00 -4.94114465E-06  7.02600068E-05  0.00000000E+00  0.00000000E+00
 -2.86012360E-05  1.06586421E-05  0.00000000E+00 -8.84852747E-05  9.15522920E-05
  0.00000000E+00  0.00000000E+00 -1.66002525E-04  2.05188446E-04  3.37687589E-04
  2.27631142E-03  1.60324448E-03 -1.35322718E-05  5.91950467E-05  2.97331891E-04
  0.00000000E+00  4.14450119E-04  1.16352253E-03  0.00000000E+00 -1.16341839E-04
  3.07660262E-04  0.00000000E+00 -5.17144722E-05  0.00000000E+00  0.00000000E+00
 -1.03300119E-05 -4.44690540E-06 -2.22935615E-04  0.00000000E+00  0.00000000E+00
 -3.53658110E-04  4.14418009E-04  9.76842109E-01 -9.21368997E-03  4.34531398E-02
 -5.48005936E-05 -2.11598561E-03 -2.04478555E-03 -8.30666745E-04  0.00000000E+00
  2.09986286E-03  8.48041750E-04  0.00000000E+00 -4.26277847E-04  8.51334420E-04
  0.00000000E+00  2.47459297E-04 -2.78344866E-04  0.00000000E+00  3.65614544E-05
  0.00000000E+00  0.00000000E+00 -6.73385672E-05  5.88316685E-05  7.86791658E-04
  0.00000000E+00  0.00000000E+00 -1.69861804E-04  3.39202330E-04 -2.25215349E-04
  0.00000000E+00  0.00000000E+00  3.80198861E-04 -1.76305094E-05  0.00000000E+00
 -8.24016506E-05 -5.84923965E-06  0.00000000E+00  0.00000000E+00  9.07791542E-06