title                                                                   
Freq      RMP2-FC                                                     Aug-CC-pVTZ         
Number of atoms                            I                5
Info1-9                                    I   N=           9
          33          24           0           0           0         100
           6           2           1
Full Title                                 C   N=           1
title       
Route                                      C   N=           4
#p freq mp2/aug-cc-pvtz density=current         
Charge                                     I                0
Multiplicity                               I                1
Number of electrons                        I               32
Number of alpha electrons                  I               16
Number of beta electrons                   I               16
Number of basis functions                  I              207
Number of independent functions            I              207
Number of point charges in /Mol/           I                0
Number of translation vectors              I                0
Atomic numbers                             I   N=           5
           1           8           8           7           8
Nuclear charges                            R   N=           5
  1.00000000E+00  8.00000000E+00  8.00000000E+00  7.00000000E+00  8.00000000E+00
Current cartesian coordinates              R   N=          15
  2.08879508E+00 -1.13695447E+00  0.00000000E+00  2.48390347E+00  6.82736688E-01
  0.00000000E+00  1.45708310E-16  1.73126078E+00  0.00000000E+00 -1.87816623E+00
 -8.09613148E-02  0.00000000E+00 -1.10160740E+00 -2.20103701E+00  0.00000000E+00
Number of symbols in /Mol/                 I                0
Force Field                                I                0
Atom Types                                 C   N=           5
                                                            
Int Atom Types                             I   N=           5
           0           0           0           0           0
MM charges                                 R   N=           5
  0.00000000E+00  0.00000000E+00  0.00000000E+00  0.00000000E+00  0.00000000E+00
Integer atomic weights                     I   N=           5
           1          16          16          14          16
Real atomic weights                        R   N=           5
  1.00782504E+00  1.59949146E+01  1.59949146E+01  1.40030740E+01  1.59949146E+01
Atom fragment info                         I   N=           5
           0           0           0           0           0
Atom residue num                           I   N=           5
           0           0           0           0           0
Nuclear spins                              I   N=           5
           1           0           0           2           0
Nuclear ZEff                               R   N=           5
 -1.00000000E+00 -5.60000000E+00 -5.60000000E+00 -4.55000000E+00 -5.60000000E+00
Nuclear ZNuc                               R   N=           5
  1.00000000E+00  8.00000000E+00  8.00000000E+00  7.00000000E+00  8.00000000E+00
Nuclear QMom                               R   N=           5
  0.00000000E+00  0.00000000E+00  0.00000000E+00  2.04400000E+00  0.00000000E+00
Nuclear GFac                               R   N=           5
  2.79284600E+00  0.00000000E+00  0.00000000E+00  4.03761000E-01  0.00000000E+00
MicOpt                                     I   N=           5
          -1          -1          -1          -1          -1
Number of residues                         I                0
Number of secondary structures             I                0
SymInf integers                            I   N=          26
           1           2           1           1           1           1
           1          -1           0           0           0           0
           0           0           0           0           0           0
           0           0           0           0           0           0
           0           0
RotTr to input orientation                 R   N=          12
 -9.77229469E-01  0.00000000E+00  2.12185215E-01  2.12185215E-01  0.00000000E+00
  9.77229469E-01  0.00000000E+00  1.00000000E+00  0.00000000E+00  2.28247704E+00
  0.00000000E+00  6.67853977E-01
Number of contracted shells                I               65
Number of primitive shells                 I              119
Pure/Cartesian d shells                    I                0
Pure/Cartesian f shells                    I                0
Highest angular momentum                   I                3
Largest degree of contraction              I                7
Shell types                                I   N=          65
           0           0           0           0           1           1
           1          -2          -2           0           0           0
           0           0           1           1           1           1
          -2          -2          -2          -3          -3           0
           0           0           0           0           1           1
           1           1          -2          -2          -2          -3
          -3           0           0           0           0           0
           1           1           1           1          -2          -2
          -2          -3          -3           0           0           0
           0           0           1           1           1           1
          -2          -2          -2          -3          -3
Number of primitives per shell             I   N=          65
           3           1           1           1           1           1
           1           1           1           7           6           1
           1           1           3           1           1           1
           1           1           1           1           1           7
           6           1           1           1           3           1
           1           1           1           1           1           1
           1           7           6           1           1           1
           3           1           1           1           1           1
           1           1           1           7           6           1
           1           1           3           1           1           1
           1           1           1           1           1
Shell to atom map                          I   N=          65
           1           1           1           1           1           1
           1           1           1           2           2           2
           2           2           2           2           2           2
           2           2           2           2           2           3
           3           3           3           3           3           3
           3           3           3           3           3           3
           3           4           4           4           4           4
           4           4           4           4           4           4
           4           4           4           5           5           5
           5           5           5           5           5           5
           5           5           5           5           5
Primitive exponents                        R   N=         119
  3.38700000E+01  5.09500000E+00  1.15900000E+00  3.25800000E-01  1.02700000E-01
  2.52600000E-02  1.40700000E+00  3.88000000E-01  1.02000000E-01  1.05700000E+00
  2.47000000E-01  1.53300000E+04  2.29900000E+03  5.22400000E+02  1.47300000E+02
  4.75500000E+01  1.67600000E+01  6.20700000E+00  5.22400000E+02  1.47300000E+02
  4.75500000E+01  1.67600000E+01  6.20700000E+00  6.88200000E-01  1.75200000E+00
  2.38400000E-01  7.37600000E-02  3.44600000E+01  7.74900000E+00  2.28000000E+00
  7.15600000E-01  2.14000000E-01  5.97400000E-02  2.31400000E+00  6.45000000E-01
  2.14000000E-01  1.42800000E+00  5.00000000E-01  1.53300000E+04  2.29900000E+03
  5.22400000E+02  1.47300000E+02  4.75500000E+01  1.67600000E+01  6.20700000E+00
  5.22400000E+02  1.47300000E+02  4.75500000E+01  1.67600000E+01  6.20700000E+00
  6.88200000E-01  1.75200000E+00  2.38400000E-01  7.37600000E-02  3.44600000E+01
  7.74900000E+00  2.28000000E+00  7.15600000E-01  2.14000000E-01  5.97400000E-02
  2.31400000E+00  6.45000000E-01  2.14000000E-01  1.42800000E+00  5.00000000E-01
  1.14200000E+04  1.71200000E+03  3.89300000E+02  1.10000000E+02  3.55700000E+01
  1.25400000E+01  4.64400000E+00  3.89300000E+02  1.10000000E+02  3.55700000E+01
  1.25400000E+01  4.64400000E+00  5.11800000E-01  1.29300000E+00  1.78700000E-01
  5.76000000E-02  2.66300000E+01  5.94800000E+00  1.74200000E+00  5.55000000E-01
  1.72500000E-01  4.91000000E-02  1.65400000E+00  4.69000000E-01  1.51000000E-01
  1.09300000E+00  3.64000000E-01  1.53300000E+04  2.29900000E+03  5.22400000E+02
  1.47300000E+02  4.75500000E+01  1.67600000E+01  6.20700000E+00  5.22400000E+02
  1.47300000E+02  4.75500000E+01  1.67600000E+01  6.20700000E+00  6.88200000E-01
  1.75200000E+00  2.38400000E-01  7.37600000E-02  3.44600000E+01  7.74900000E+00
  2.28000000E+00  7.15600000E-01  2.14000000E-01  5.97400000E-02  2.31400000E+00
  6.45000000E-01  2.14000000E-01  1.42800000E+00  5.00000000E-01
Contraction coefficients                   R   N=         119
  2.54948632E-02  1.90362766E-01  8.52162022E-01  1.00000000E+00  1.00000000E+00
  1.00000000E+00  1.00000000E+00  1.00000000E+00  1.00000000E+00  1.00000000E+00
  1.00000000E+00  5.19808943E-04  4.02025621E-03  2.07128267E-02  8.10105536E-02
  2.35962985E-01  4.42653446E-01  3.57064423E-01 -4.42115008E-05 -1.22591041E-03
 -1.05517725E-02 -6.74452633E-02 -1.71198607E-01  1.07329856E+00  1.00000000E+00
  1.00000000E+00  1.00000000E+00  4.11634896E-02  2.57762836E-01  8.02419274E-01
  1.00000000E+00  1.00000000E+00  1.00000000E+00  1.00000000E+00  1.00000000E+00
  1.00000000E+00  1.00000000E+00  1.00000000E+00  5.19808943E-04  4.02025621E-03
  2.07128267E-02  8.10105536E-02  2.35962985E-01  4.42653446E-01  3.57064423E-01
 -4.42115008E-05 -1.22591041E-03 -1.05517725E-02 -6.74452633E-02 -1.71198607E-01
  1.07329856E+00  1.00000000E+00  1.00000000E+00  1.00000000E+00  4.11634896E-02
  2.57762836E-01  8.02419274E-01  1.00000000E+00  1.00000000E+00  1.00000000E+00
  1.00000000E+00  1.00000000E+00  1.00000000E+00  1.00000000E+00  1.00000000E+00
  5.34563860E-04  4.13435660E-03  2.12335358E-02  8.25006224E-02  2.38138871E-01
  4.42551547E-01  3.53757422E-01 -4.89867350E-05 -1.19527323E-03 -1.03490714E-02
 -6.48680190E-02 -1.71552477E-01  1.07289568E+00  1.00000000E+00  1.00000000E+00
  1.00000000E+00  3.98072123E-02  2.49002660E-01  8.10479727E-01  1.00000000E+00
  1.00000000E+00  1.00000000E+00  1.00000000E+00  1.00000000E+00  1.00000000E+00
  1.00000000E+00  1.00000000E+00  5.19808943E-04  4.02025621E-03  2.07128267E-02
  8.10105536E-02  2.35962985E-01  4.42653446E-01  3.57064423E-01 -4.42115008E-05
 -1.22591041E-03 -1.05517725E-02 -6.74452633E-02 -1.71198607E-01  1.07329856E+00
  1.00000000E+00  1.00000000E+00  1.00000000E+00  4.11634896E-02  2.57762836E-01
  8.02419274E-01  1.00000000E+00  1.00000000E+00  1.00000000E+00  1.00000000E+00
  1.00000000E+00  1.00000000E+00  1.00000000E+00  1.00000000E+00
Coordinates of each shell                  R   N=         195
  2.08879508E+00 -1.13695447E+00  0.00000000E+00  2.08879508E+00 -1.13695447E+00
  0.00000000E+00  2.08879508E+00 -1.13695447E+00  0.00000000E+00  2.08879508E+00
 -1.13695447E+00  0.00000000E+00  2.08879508E+00 -1.13695447E+00  0.00000000E+00
  2.08879508E+00 -1.13695447E+00  0.00000000E+00  2.08879508E+00 -1.13695447E+00
  0.00000000E+00  2.08879508E+00 -1.13695447E+00  0.00000000E+00  2.08879508E+00
 -1.13695447E+00  0.00000000E+00  2.48390347E+00  6.82736688E-01  0.00000000E+00
  2.48390347E+00  6.82736688E-01  0.00000000E+00  2.48390347E+00  6.82736688E-01
  0.00000000E+00  2.48390347E+00  6.82736688E-01  0.00000000E+00  2.48390347E+00
  6.82736688E-01  0.00000000E+00  2.48390347E+00  6.82736688E-01  0.00000000E+00
  2.48390347E+00  6.82736688E-01  0.00000000E+00  2.48390347E+00  6.82736688E-01
  0.00000000E+00  2.48390347E+00  6.82736688E-01  0.00000000E+00  2.48390347E+00
  6.82736688E-01  0.00000000E+00  2.48390347E+00  6.82736688E-01  0.00000000E+00
  2.48390347E+00  6.82736688E-01  0.00000000E+00  2.48390347E+00  6.82736688E-01
  0.00000000E+00  2.48390347E+00  6.82736688E-01  0.00000000E+00  2.99413541E-18
  1.73126078E+00  0.00000000E+00  2.99413541E-18  1.73126078E+00  0.00000000E+00
  2.99413541E-18  1.73126078E+00  0.00000000E+00  2.99413541E-18  1.73126078E+00
  0.00000000E+00  2.99413541E-18  1.73126078E+00  0.00000000E+00  2.99413541E-18
  1.73126078E+00  0.00000000E+00  2.99413541E-18  1.73126078E+00  0.00000000E+00
  2.99413541E-18  1.73126078E+00  0.00000000E+00  2.99413541E-18  1.73126078E+00
  0.00000000E+00  2.99413541E-18  1.73126078E+00  0.00000000E+00  2.99413541E-18
  1.73126078E+00  0.00000000E+00  2.99413541E-18  1.73126078E+00  0.00000000E+00
  2.99413541E-18  1.73126078E+00  0.00000000E+00  2.99413541E-18  1.73126078E+00
  0.00000000E+00 -1.87816623E+00 -8.09613148E-02  0.00000000E+00 -1.87816623E+00
 -8.09613148E-02  0.00000000E+00 -1.87816623E+00 -8.09613148E-02  0.00000000E+00
 -1.87816623E+00 -8.09613148E-02  0.00000000E+00 -1.87816623E+00 -8.09613148E-02
  0.00000000E+00 -1.87816623E+00 -8.09613148E-02  0.00000000E+00 -1.87816623E+00
 -8.09613148E-02  0.00000000E+00 -1.87816623E+00 -8.09613148E-02  0.00000000E+00
 -1.87816623E+00 -8.09613148E-02  0.00000000E+00 -1.87816623E+00 -8.09613148E-02
  0.00000000E+00 -1.87816623E+00 -8.09613148E-02  0.00000000E+00 -1.87816623E+00
 -8.09613148E-02  0.00000000E+00 -1.87816623E+00 -8.09613148E-02  0.00000000E+00
 -1.87816623E+00 -8.09613148E-02  0.00000000E+00 -1.10160740E+00 -2.20103701E+00
  0.00000000E+00 -1.10160740E+00 -2.20103701E+00  0.00000000E+00 -1.10160740E+00
 -2.20103701E+00  0.00000000E+00 -1.10160740E+00 -2.20103701E+00  0.00000000E+00
 -1.10160740E+00 -2.20103701E+00  0.00000000E+00 -1.10160740E+00 -2.20103701E+00
  0.00000000E+00 -1.10160740E+00 -2.20103701E+00  0.00000000E+00 -1.10160740E+00
 -2.20103701E+00  0.00000000E+00 -1.10160740E+00 -2.20103701E+00  0.00000000E+00
 -1.10160740E+00 -2.20103701E+00  0.00000000E+00 -1.10160740E+00 -2.20103701E+00
  0.00000000E+00 -1.10160740E+00 -2.20103701E+00  0.00000000E+00 -1.10160740E+00
 -2.20103701E+00  0.00000000E+00 -1.10160740E+00 -2.20103701E+00  0.00000000E+00
Num ILSW                                   I              100
ILSW                                       I   N=         100
           0           0           0           0           2           0
           0           0           0           0           0          -1
           5           0           0           0           2           0
           0           0           0           0           1           0
           1           0           0           0           0           0
           0           0      100000           0          -1           0
           0           0           0           0           0           0
           0           0           0           1           1           0
           0 -2000000000           1           0           0           0
           0           0           4          52           0           0
           0           0           0           0           0           0
           0           0           0           5           4           1
           0           0           0           0           0           0
           0           0           0           0           0           0
           0           0           0           0           0           0
           0           0           0           0           0           0
           0           0           0           0
Num RLSW                                   I               52
RLSW                                       R   N=          52
  1.00000000E+00  1.00000000E+00  1.00000000E+00  1.00000000E+00  1.00000000E+00
  0.00000000E+00  0.00000000E+00  1.00000000E+00  0.00000000E+00  0.00000000E+00
  0.00000000E+00  0.00000000E+00  1.00000000E+00  0.00000000E+00  0.00000000E+00
  0.00000000E+00  0.00000000E+00  1.00000000E+00  0.00000000E+00  0.00000000E+00
  0.00000000E+00  0.00000000E+00  1.00000000E+00  0.00000000E+00  0.00000000E+00
  0.00000000E+00  0.00000000E+00  1.00000000E+00  0.00000000E+00  0.00000000E+00
  0.00000000E+00  0.00000000E+00  1.00000000E+00  0.00000000E+00  0.00000000E+00
  0.00000000E+00  0.00000000E+00  0.00000000E+00  1.00000000E+00  1.00000000E+00
  0.00000000E+00  1.00000000E+00  0.00000000E+00  0.00000000E+00  0.00000000E+00
  0.00000000E+00  0.00000000E+00  0.00000000E+00  0.00000000E+00  0.00000000E+00
  0.00000000E+00  0.00000000E+00
MxBond                                     I                2
NBond                                      I   N=           5
           1           2           2           2           1
IBond                                      I   N=          10
           2           0           1           3           2           4
           3           5           4           0
RBond                                      R   N=          10
  1.00000000E+00  0.00000000E+00  1.00000000E+00  1.00000000E+00  1.00000000E+00
  1.00000000E+00  1.00000000E+00  2.00000000E+00  2.00000000E+00  0.00000000E+00
Virial Ratio                               R      2.002213495567642E+00
SCF Energy                                 R     -2.795063831602566E+02
MP2 Energy                                 R     -2.804552184241027E+02
Total Energy                               R     -2.804552184241027E+02
Post-SCF wavefunction norm                 R      1.583705292340157E+00
RMS Force                                  R      1.024548781102659E-03
RMS Density                                R      4.470040242098212E-09
NImag                                      I                0
Job Status                                 I                1
Nuclear derivative order                   I                2
External E-field                           R   N=          35
  0.00000000E+00  0.00000000E+00  0.00000000E+00  0.00000000E+00  0.00000000E+00
  0.00000000E+00  0.00000000E+00  0.00000000E+00  0.00000000E+00  0.00000000E+00
  0.00000000E+00  0.00000000E+00  0.00000000E+00  0.00000000E+00  0.00000000E+00
  0.00000000E+00  0.00000000E+00  0.00000000E+00  0.00000000E+00  0.00000000E+00
  0.00000000E+00  0.00000000E+00  0.00000000E+00  0.00000000E+00  0.00000000E+00
  0.00000000E+00  0.00000000E+00  0.00000000E+00  0.00000000E+00  0.00000000E+00
  0.00000000E+00  0.00000000E+00  0.00000000E+00  0.00000000E+00  0.00000000E+00
IOpCl                                      I                0
IROHF                                      I                0
Alpha Orbital Energies                     R   N=         207
 -2.07193178E+01 -2.06870212E+01 -2.06679711E+01 -1.58263298E+01 -1.64489681E+00
 -1.50448748E+00 -1.29356992E+00 -9.60201411E-01 -8.35343027E-01 -7.59024396E-01
 -7.40057864E-01 -6.36690897E-01 -6.18312232E-01 -6.18064548E-01 -5.05520558E-01
 -4.97248614E-01  3.51094649E-02  5.99775092E-02  9.51198392E-02  1.00305600E-01
  1.19705553E-01  1.22574825E-01  1.49471920E-01  1.52126061E-01  1.77456209E-01
  1.80328186E-01  1.89873601E-01  2.10970333E-01  2.16690635E-01  2.42497226E-01
  2.46353586E-01  2.69350698E-01  3.13279511E-01  3.17305255E-01  3.37997738E-01
  3.44137307E-01  3.47148456E-01  3.92570583E-01  4.49818460E-01  4.88697133E-01
  5.05332708E-01  5.18201207E-01  5.45456209E-01  5.60674266E-01  5.99070817E-01
  6.19925180E-01  6.38365966E-01  6.89727044E-01  7.16913421E-01  7.24381647E-01
  7.44882178E-01  7.63167773E-01  7.67131930E-01  7.95764895E-01  8.07217423E-01
  8.39593909E-01  8.43158835E-01  8.51999214E-01  8.85498063E-01  9.08271177E-01
  9.32167823E-01  9.47358369E-01  9.53938211E-01  1.01855463E+00  1.03246709E+00
  1.06604580E+00  1.06675602E+00  1.09617177E+00  1.14529916E+00  1.15660146E+00
  1.16856650E+00  1.22325313E+00  1.22756021E+00  1.24587094E+00  1.35469205E+00
  1.35927821E+00  1.37249628E+00  1.46805825E+00  1.48597811E+00  1.50400763E+00
  1.54263067E+00  1.59760803E+00  1.59939187E+00  1.60598598E+00  1.62915660E+00
  1.69582427E+00  1.74093657E+00  1.80085195E+00  1.83041179E+00  1.88866640E+00
  1.89555785E+00  1.92992285E+00  1.97880800E+00  1.98971960E+00  2.05306062E+00
  2.12532729E+00  2.13050866E+00  2.16628633E+00  2.18853261E+00  2.24434395E+00
  2.25951400E+00  2.29408237E+00  2.35237452E+00  2.36846843E+00  2.38621267E+00
  2.40263304E+00  2.43358272E+00  2.46918743E+00  2.47943050E+00  2.53069264E+00
  2.53865720E+00  2.55141769E+00  2.55951369E+00  2.61781561E+00  2.63082196E+00
  2.67416470E+00  2.67613585E+00  2.75433639E+00  2.81020823E+00  2.82024015E+00
  2.83945345E+00  2.91920607E+00  2.98973603E+00  3.04655195E+00  3.04974743E+00
  3.11448708E+00  3.11903042E+00  3.17522983E+00  3.21360863E+00  3.30988132E+00
  3.33128030E+00  3.36165370E+00  3.47626134E+00  3.67871217E+00  3.86981859E+00
  3.93332023E+00  4.18629014E+00  4.22612539E+00  4.22828937E+00  4.26941857E+00
  4.37168002E+00  4.49957722E+00  4.53628842E+00  4.55471176E+00  4.59855954E+00
  4.69487463E+00  4.81090683E+00  4.89630161E+00  4.91494845E+00  4.94006322E+00
  5.00055557E+00  5.00595489E+00  5.10667744E+00  5.13280059E+00  5.18118739E+00
  5.25169193E+00  5.26000108E+00  5.31930901E+00  5.34870438E+00  5.36007375E+00
  5.54920884E+00  5.64566282E+00  5.70819880E+00  5.89117611E+00  5.99551906E+00
  6.26518277E+00  6.29591674E+00  6.36207327E+00  6.37717182E+00  6.59803729E+00
  6.66001400E+00  6.66418630E+00  6.69248244E+00  6.72772102E+00  6.79258181E+00
  6.80347600E+00  6.85763905E+00  6.96726559E+00  7.02113357E+00  7.06633376E+00
  7.07995100E+00  7.13749187E+00  7.17489000E+00  7.18213425E+00  7.20395748E+00
  7.24663502E+00  7.24880397E+00  7.27208004E+00  7.34963482E+00  7.39328792E+00
  7.43071857E+00  7.44226836E+00  7.46396333E+00  7.56001429E+00  7.66352185E+00
  7.67463532E+00  7.79500752E+00  7.88401740E+00  7.95311635E+00  8.07037522E+00
  8.30823742E+00  8.49953248E+00  8.65234754E+00  1.36218218E+01  1.47623323E+01
  1.51086522E+01  1.57813310E+01
Alpha MO coefficients                      R   N=       42849
  6.37971483E-05 -7.93355582E-06 -1.11584685E-03  1.41761536E-05 -5.12346802E-05
  4.19735920E-05  0.00000000E+00 -9.30178803E-05 -2.82162984E-04  0.00000000E+00
 -2.42652545E-06 -3.52190044E-04  0.00000000E+00  4.17645562E-05  0.00000000E+00
  0.00000000E+00 -2.51022569E-05  1.19841709E-05  2.30192165E-04  0.00000000E+00
  0.00000000E+00 -4.16525611E-05 -2.12300511E-04  3.08272297E-03 -9.55901153E-05
 -9.84344903E-05  3.52590521E-03  2.48279376E-03  1.02068547E-04 -5.37498003E-05
  0.00000000E+00 -7.26167395E-04  2.89196593E-04  0.00000000E+00 -1.96345419E-03
  1.12152656E-03  0.00000000E+00 -5.38605700E-04  3.86643184E-05  0.00000000E+00
  2.04442176E-05  0.00000000E+00  0.00000000E+00 -8.72189949E-06  4.41642520E-05
 -4.42394451E-04  0.00000000E+00  0.00000000E+00  4.25053618E-04 -6.64642760E-04
 -3.63086755E-04  0.00000000E+00  0.00000000E+00  5.39272868E-04 -7.47198854E-04
  0.00000000E+00  7.36730983E-05 -5.27837901E-05  0.00000000E+00  0.00000000E+00
 -2.69327095E-05  1.08521174E-04  0.00000000E+00  2.07902121E-04 -5.05496446E-05
  0.00000000E+00  0.00000000E+00 -1.67804297E-04  3.00975659E-04  9.76902605E-01
 -9.17486207E-03  4.34086761E-02  4.89488573E-04 -2.20845181E-03  4.41285798E-04
 -2.14923462E-03  0.00000000E+00 -3.12095049E-04  2.25477681E-03  0.00000000E+00
 -2.30751876E-03 -4.83302792E-04  0.00000000E+00 -2.22871327E-04  9.73185768E-05
  0.00000000E+00  6.85311436E-06  0.00000000E+00  0.00000000E+00 -5.12675516E-06
  3.79583803E-05  8.26667763E-04  0.00000000E+00  0.00000000E+00 -4.75728987E-04
 -1.68428688E-04 -1.41615851E-04  0.00000000E+00  0.00000000E+00 -5.52755872E-04
  3.54456441E-04  0.00000000E+00 -6.52207576E-06 -7.96143984E-05  0.00000000E+00
  0.00000000E+00 -8.82293073E-06  4.78578999E-05  0.00000000E+00  9.16685605E-05
  1.59870540E-06  0.00000000E+00  0.00000000E+00 -3.32792965E-04  3.82722414E-04
  1.04498371E-04  4.57805614E-04 -3.23928646E-04 -8.34735753E-04  3.48537979E-04
 -4.50247615E-05 -9.97031626E-05  0.00000000E+00  7.00268614E-04  1.10842884E-03
  0.00000000E+00 -7.47923310E-04 -6.23784945E-04  0.00000000E+00  1.97266948E-04
  2.13725587E-04  0.00000000E+00 -5.25625421E-05  0.00000000E+00  0.00000000E+00
  1.88387285E-05  9.35851060E-05 -4.16165920E-04  0.00000000E+00  0.00000000E+00
  4.88815780E-05  1.07727324E-03  2.68546850E-05  0.00000000E+00  0.00000000E+00
 -3.07107587E-04  3.09042575E-05  0.00000000E+00 -7.90825896E-05 -1.13013656E-04
  0.00000000E+00  0.00000000E+00 -9.59994882E-05  1.06535954E-04  0.00000000E+00
 -1.26242001E-04  4.52921264E-05  0.00000000E+00  0.00000000E+00  1.67659122E-05
  5.17094961E-04 -7.15605261E-04  5.38064802E-05 -6.93812703E-05  2.35625970E-04
 -1.79705289E-04 -2.83278117E-05 -4.06559989E-05  0.00000000E+00  1.65517563E-04
  2.54660230E-04  0.00000000E+00  5.08537522E-04  3.17872035E-04  0.00000000E+00
 -2.24266583E-04 -6.22528975E-05  0.00000000E+00 -1.34346117E-05  0.00000000E+00
  0.00000000E+00  2.71175048E-06  1.63617128E-05  9.03634003E-07  0.00000000E+00
  0.00000000E+00 -1.60327666E-04  1.65247124E-06 -1.69993672E-05  0.00000000E+00
  0.00000000E+00 -1.68427989E-04 -5.50680578E-05  0.00000000E+00 -5.59050306E-06
 -8.20698916E-06  0.00000000E+00  0.00000000E+00 -2.07945328E-05  1.00752469E-05
  0.00000000E+00  3.98596247E-05  6.20364428E-05  0.00000000E+00  0.00000000E+00
  1.61796306E-04 -1.02950328E-04  3.87544107E-05  6.59691942E-05 -1.01926467E-04
 -2.96826361E-05  2.15499953E-05  1.34823710E-05  0.00000000E+00  2.32174698E-04
  4.99324290E-05  0.00000000E+00  1.19454874E-04  1.93950710E-05  0.00000000E+00
  1.17049105E-05  0.00000000E+00  0.00000000E+00 -9.78507592E-06  1.84538625E-05
  1.92802165E-05  0.00000000E+00  0.00000000E+00 -8.84601482E-05  6.86315744E-05
 -2.63295189E-04  3.06238524E-05 -1.50011986E-05 -5.46417335E-04  1.56054353E-04
  7.28491943E-06  1.35247236E-05  0.00000000E+00 -1.53430044E-06 -4.35043626E-05
  0.00000000E+00  1.82105018E-04  1.38747542E-04  0.00000000E+00 -4.40611017E-05
  5.07544241E-05  0.00000000E+00 -1.93007352E-06  0.00000000E+00  0.00000000E+00
 -8.15735675E-06 -1.10700191E-05  2.37096634E-05  0.00000000E+00  0.00000000E+00
  4.99694393E-05  1.08091046E-04  6.42623740E-05  0.00000000E+00  0.00000000E+00
 -2.99395674E-05 -7.97879390E-05  0.00000000E+00  7.62560958E-06  1.00040026E-05
  0.00000000E+00  0.00000000E+00 -8.42163637E-07 -2.59362173E-05  0.00000000E+00
 -1.48791232E-05 -3.79885101E-05  0.00000000E+00  0.00000000E+00 -2.01997941E-06
 -1.83445800E-05  7.44964013E-04  2.36790679E-05 -1.70771353E-05  2.94056238E-04
 -3.98832700E-04  1.60393150E-05  2.59398291E-05  0.00000000E+00 -6.42130067E-05
 -1.49041708E-04  0.00000000E+00  1.41368337E-04 -1.96955200E-04  0.00000000E+00
 -1.57994570E-04  1.41966343E-04  0.00000000E+00 -4.14656408E-06  0.00000000E+00
  0.00000000E+00 -3.04231361E-05 -9.38057327E-06 -4.95994756E-05  0.00000000E+00
  0.00000000E+00  8.64977068E-05  1.17883747E-04 -6.36683402E-05  0.00000000E+00
  0.00000000E+00  4.41689318E-05  2.95827730E-05  0.00000000E+00  2.56183528E-06
  2.29736452E-06  0.00000000E+00  0.00000000E+00 -8.69422151E-06 -3.04970938E-06
  0.00000000E+00  4.24123740E-06 -2.45125259E-05  0.00000000E+00  0.00000000E+00
  9.23582983E-05 -1.57442859E-04  2.36847836E-04  1.35499629E-03 -1.47973666E-04
 -7.06499417E-04  9.06283180E-04  6.29190108E-05 -7.15270047E-05  0.00000000E+00
  5.82408850E-04 -2.07328561E-03  0.00000000E+00  1.07905465E-04  4.92235952E-04
  0.00000000E+00  1.89031578E-04 -3.04195169E-04  0.00000000E+00 -1.27554023E-04
  0.00000000E+00  0.00000000E+00 -2.02835163E-04 -1.60500153E-04 -4.61238377E-04
  0.00000000E+00  0.00000000E+00 -5.88996988E-04 -9.21963007E-04 -4.23204061E-05
  0.00000000E+00  0.00000000E+00  6.17340933E-05  1.17637955E-04  0.00000000E+00
  7.94359035E-06  3.61791273E-05  0.00000000E+00  0.00000000E+00 -2.42269384E-05
 -4.44801247E-06  0.00000000E+00 -1.36951958E-04  1.59105091E-04  0.00000000E+00
  0.00000000E+00 -3.11556525E-04 -3.50310243E-05  9.76644640E-01 -9.88442095E-03
  4.35777780E-02  3.69204257E-03 -8.95329755E-04 -4.62629514E-04  2.12664232E-03
  0.00000000E+00  5.30870290E-04 -2.49875177E-03  0.00000000E+00 -8.23835509E-05
  8.25012622E-04  0.00000000E+00  1.03056140E-04 -6.43890846E-05  0.00000000E+00
 -1.94254764E-04  0.00000000E+00  0.00000000E+00 -7.37929941E-05 -4.34326909E-05
  4.08497181E-04  0.00000000E+00  0.00000000E+00  8.49864221E-04  4.93731611E-04
 -2.05960139E-04  0.00000000E+00  0.00000000E+00 -1.46687511E-04 -3.82875533E-05
  0.00000000E+00 -5.30516120E-06  7.02377162E-05  0.00000000E+00  0.00000000E+00
 -2.85522859E-05  1.01518374E-05  0.00000000E+00 -8.92423729E-05  9.09097671E-05
  0.00000000E+00  0.00000000E+00 -1.70121071E-04  2.00462035E-04  3.73047334E-04
  2.00446744E-03  1.39720228E-03 -1.72810766E-05  5.22124128E-05  2.68289289E-04
  0.00000000E+00  3.72549546E-04  1.02492786E-03  0.00000000E+00 -1.32643767E-04
  2.36354290E-04  0.00000000E+00 -2.41662085E-05  0.00000000E+00  0.00000000E+00
  3.32294413E-05 -2.96226726E-05 -2.17855584E-04  0.00000000E+00  0.00000000E+00
 -3.47052765E-04  4.08704252E-04  9.76834089E-01 -9.18736642E-03  4.34661459E-02
  1.23863134E-04 -1.91147838E-03 -2.04593974E-03 -8.28144543E-04  0.00000000E+00
  2.08552322E-03  7.65074384E-04  0.00000000E+00 -3.92547804E-04  6.44010230E-04
  0.00000000E+00  2.24291058E-04 -3.00074128E-04  0.00000000E+00  3.04697537E-05
  0.00000000E+00  0.00000000E+00 -7.46762657E-05  6.39595790E-05  7.66214660E-04
  0.00000000E+00  0.00000000E+00 -2.08654498E-04  3.53215470E-04 -2.39033227E-04
  0.00000000E+00  0.00000000E+00  3.31714750E-04  9.58249557E-07  0.00000000E+00
 -8.08298855E-05  1.60964754E-06  0.00000000E+00  0.00000000E+00  1.55340343E-05