title                                                                   
Freq      RMP2-FC                                                     Aug-CC-pVTZ         
Number of atoms                            I                5
Info1-9                                    I   N=           9
          33          24           0           0           0         100
           6           2           1
Full Title                                 C   N=           1
title       
Route                                      C   N=           4
#p freq mp2/aug-cc-pvtz density=current         
Charge                                     I                0
Multiplicity                               I                1
Number of electrons                        I               32
Number of alpha electrons                  I               16
Number of beta electrons                   I               16
Number of basis functions                  I              207
Number of independent functions            I              207
Number of point charges in /Mol/           I                0
Number of translation vectors              I                0
Atomic numbers                             I   N=           5
           1           8           8           7           8
Nuclear charges                            R   N=           5
  1.00000000E+00  8.00000000E+00  8.00000000E+00  7.00000000E+00  8.00000000E+00
Current cartesian coordinates              R   N=          15
  1.02737366E+00 -2.14884728E+00  1.47556004E-01  2.41265580E+00 -9.15411805E-01
 -1.68120348E-02  1.02560127E+00  1.39647077E+00  4.58623418E-03 -1.56001734E+00
  1.04117876E+00  5.73012922E-03 -2.20166360E+00 -1.12348447E+00 -1.12325630E-02
Number of symbols in /Mol/                 I                0
Force Field                                I                0
Atom Types                                 C   N=           5
                                                            
Int Atom Types                             I   N=           5
           0           0           0           0           0
MM charges                                 R   N=           5
  0.00000000E+00  0.00000000E+00  0.00000000E+00  0.00000000E+00  0.00000000E+00
Integer atomic weights                     I   N=           5
           1          16          16          14          16
Real atomic weights                        R   N=           5
  1.00782504E+00  1.59949146E+01  1.59949146E+01  1.40030740E+01  1.59949146E+01
Atom fragment info                         I   N=           5
           0           0           0           0           0
Atom residue num                           I   N=           5
           0           0           0           0           0
Nuclear spins                              I   N=           5
           1           0           0           2           0
Nuclear ZEff                               R   N=           5
 -1.00000000E+00 -5.60000000E+00 -5.60000000E+00 -4.55000000E+00 -5.60000000E+00
Nuclear ZNuc                               R   N=           5
  1.00000000E+00  8.00000000E+00  8.00000000E+00  7.00000000E+00  8.00000000E+00
Nuclear QMom                               R   N=           5
  0.00000000E+00  0.00000000E+00  0.00000000E+00  2.04400000E+00  0.00000000E+00
Nuclear GFac                               R   N=           5
  2.79284600E+00  0.00000000E+00  0.00000000E+00  4.03761000E-01  0.00000000E+00
MicOpt                                     I   N=           5
          -1          -1          -1          -1          -1
Number of residues                         I                0
Number of secondary structures             I                0
SymInf integers                            I   N=          26
           1           1           1           1           1           0
           0           0           0           0           0           0
           0           0           0           0           0           0
           0           0           0           0           0           0
           0           0
RotTr to input orientation                 R   N=          12
 -6.63152921E-01  8.23621905E-02  7.43938622E-01  7.48077879E-01  4.01978188E-02
  6.62392348E-01  2.46513748E-02  9.95791447E-01 -8.82706337E-02  2.28517350E+00
 -1.45172778E-01  6.72101914E-01
Number of contracted shells                I               65
Number of primitive shells                 I              119
Pure/Cartesian d shells                    I                0
Pure/Cartesian f shells                    I                0
Highest angular momentum                   I                3
Largest degree of contraction              I                7
Shell types                                I   N=          65
           0           0           0           0           1           1
           1          -2          -2           0           0           0
           0           0           1           1           1           1
          -2          -2          -2          -3          -3           0
           0           0           0           0           1           1
           1           1          -2          -2          -2          -3
          -3           0           0           0           0           0
           1           1           1           1          -2          -2
          -2          -3          -3           0           0           0
           0           0           1           1           1           1
          -2          -2          -2          -3          -3
Number of primitives per shell             I   N=          65
           3           1           1           1           1           1
           1           1           1           7           6           1
           1           1           3           1           1           1
           1           1           1           1           1           7
           6           1           1           1           3           1
           1           1           1           1           1           1
           1           7           6           1           1           1
           3           1           1           1           1           1
           1           1           1           7           6           1
           1           1           3           1           1           1
           1           1           1           1           1
Shell to atom map                          I   N=          65
           1           1           1           1           1           1
           1           1           1           2           2           2
           2           2           2           2           2           2
           2           2           2           2           2           3
           3           3           3           3           3           3
           3           3           3           3           3           3
           3           4           4           4           4           4
           4           4           4           4           4           4
           4           4           4           5           5           5
           5           5           5           5           5           5
           5           5           5           5           5
Primitive exponents                        R   N=         119
  3.38700000E+01  5.09500000E+00  1.15900000E+00  3.25800000E-01  1.02700000E-01
  2.52600000E-02  1.40700000E+00  3.88000000E-01  1.02000000E-01  1.05700000E+00
  2.47000000E-01  1.53300000E+04  2.29900000E+03  5.22400000E+02  1.47300000E+02
  4.75500000E+01  1.67600000E+01  6.20700000E+00  5.22400000E+02  1.47300000E+02
  4.75500000E+01  1.67600000E+01  6.20700000E+00  6.88200000E-01  1.75200000E+00
  2.38400000E-01  7.37600000E-02  3.44600000E+01  7.74900000E+00  2.28000000E+00
  7.15600000E-01  2.14000000E-01  5.97400000E-02  2.31400000E+00  6.45000000E-01
  2.14000000E-01  1.42800000E+00  5.00000000E-01  1.53300000E+04  2.29900000E+03
  5.22400000E+02  1.47300000E+02  4.75500000E+01  1.67600000E+01  6.20700000E+00
  5.22400000E+02  1.47300000E+02  4.75500000E+01  1.67600000E+01  6.20700000E+00
  6.88200000E-01  1.75200000E+00  2.38400000E-01  7.37600000E-02  3.44600000E+01
  7.74900000E+00  2.28000000E+00  7.15600000E-01  2.14000000E-01  5.97400000E-02
  2.31400000E+00  6.45000000E-01  2.14000000E-01  1.42800000E+00  5.00000000E-01
  1.14200000E+04  1.71200000E+03  3.89300000E+02  1.10000000E+02  3.55700000E+01
  1.25400000E+01  4.64400000E+00  3.89300000E+02  1.10000000E+02  3.55700000E+01
  1.25400000E+01  4.64400000E+00  5.11800000E-01  1.29300000E+00  1.78700000E-01
  5.76000000E-02  2.66300000E+01  5.94800000E+00  1.74200000E+00  5.55000000E-01
  1.72500000E-01  4.91000000E-02  1.65400000E+00  4.69000000E-01  1.51000000E-01
  1.09300000E+00  3.64000000E-01  1.53300000E+04  2.29900000E+03  5.22400000E+02
  1.47300000E+02  4.75500000E+01  1.67600000E+01  6.20700000E+00  5.22400000E+02
  1.47300000E+02  4.75500000E+01  1.67600000E+01  6.20700000E+00  6.88200000E-01
  1.75200000E+00  2.38400000E-01  7.37600000E-02  3.44600000E+01  7.74900000E+00
  2.28000000E+00  7.15600000E-01  2.14000000E-01  5.97400000E-02  2.31400000E+00
  6.45000000E-01  2.14000000E-01  1.42800000E+00  5.00000000E-01
Contraction coefficients                   R   N=         119
  2.54948632E-02  1.90362766E-01  8.52162022E-01  1.00000000E+00  1.00000000E+00
  1.00000000E+00  1.00000000E+00  1.00000000E+00  1.00000000E+00  1.00000000E+00
  1.00000000E+00  5.19808943E-04  4.02025621E-03  2.07128267E-02  8.10105536E-02
  2.35962985E-01  4.42653446E-01  3.57064423E-01 -4.42115008E-05 -1.22591041E-03
 -1.05517725E-02 -6.74452633E-02 -1.71198607E-01  1.07329856E+00  1.00000000E+00
  1.00000000E+00  1.00000000E+00  4.11634896E-02  2.57762836E-01  8.02419274E-01
  1.00000000E+00  1.00000000E+00  1.00000000E+00  1.00000000E+00  1.00000000E+00
  1.00000000E+00  1.00000000E+00  1.00000000E+00  5.19808943E-04  4.02025621E-03
  2.07128267E-02  8.10105536E-02  2.35962985E-01  4.42653446E-01  3.57064423E-01
 -4.42115008E-05 -1.22591041E-03 -1.05517725E-02 -6.74452633E-02 -1.71198607E-01
  1.07329856E+00  1.00000000E+00  1.00000000E+00  1.00000000E+00  4.11634896E-02
  2.57762836E-01  8.02419274E-01  1.00000000E+00  1.00000000E+00  1.00000000E+00
  1.00000000E+00  1.00000000E+00  1.00000000E+00  1.00000000E+00  1.00000000E+00
  5.34563860E-04  4.13435660E-03  2.12335358E-02  8.25006224E-02  2.38138871E-01
  4.42551547E-01  3.53757422E-01 -4.89867350E-05 -1.19527323E-03 -1.03490714E-02
 -6.48680190E-02 -1.71552477E-01  1.07289568E+00  1.00000000E+00  1.00000000E+00
  1.00000000E+00  3.98072123E-02  2.49002660E-01  8.10479727E-01  1.00000000E+00
  1.00000000E+00  1.00000000E+00  1.00000000E+00  1.00000000E+00  1.00000000E+00
  1.00000000E+00  1.00000000E+00  5.19808943E-04  4.02025621E-03  2.07128267E-02
  8.10105536E-02  2.35962985E-01  4.42653446E-01  3.57064423E-01 -4.42115008E-05
 -1.22591041E-03 -1.05517725E-02 -6.74452633E-02 -1.71198607E-01  1.07329856E+00
  1.00000000E+00  1.00000000E+00  1.00000000E+00  4.11634896E-02  2.57762836E-01
  8.02419274E-01  1.00000000E+00  1.00000000E+00  1.00000000E+00  1.00000000E+00
  1.00000000E+00  1.00000000E+00  1.00000000E+00  1.00000000E+00
Coordinates of each shell                  R   N=         195
  1.02737366E+00 -2.14884728E+00  1.47556004E-01  1.02737366E+00 -2.14884728E+00
  1.47556004E-01  1.02737366E+00 -2.14884728E+00  1.47556004E-01  1.02737366E+00
 -2.14884728E+00  1.47556004E-01  1.02737366E+00 -2.14884728E+00  1.47556004E-01
  1.02737366E+00 -2.14884728E+00  1.47556004E-01  1.02737366E+00 -2.14884728E+00
  1.47556004E-01  1.02737366E+00 -2.14884728E+00  1.47556004E-01  1.02737366E+00
 -2.14884728E+00  1.47556004E-01  2.41265580E+00 -9.15411805E-01 -1.68120348E-02
  2.41265580E+00 -9.15411805E-01 -1.68120348E-02  2.41265580E+00 -9.15411805E-01
 -1.68120348E-02  2.41265580E+00 -9.15411805E-01 -1.68120348E-02  2.41265580E+00
 -9.15411805E-01 -1.68120348E-02  2.41265580E+00 -9.15411805E-01 -1.68120348E-02
  2.41265580E+00 -9.15411805E-01 -1.68120348E-02  2.41265580E+00 -9.15411805E-01
 -1.68120348E-02  2.41265580E+00 -9.15411805E-01 -1.68120348E-02  2.41265580E+00
 -9.15411805E-01 -1.68120348E-02  2.41265580E+00 -9.15411805E-01 -1.68120348E-02
  2.41265580E+00 -9.15411805E-01 -1.68120348E-02  2.41265580E+00 -9.15411805E-01
 -1.68120348E-02  2.41265580E+00 -9.15411805E-01 -1.68120348E-02  1.02560127E+00
  1.39647077E+00  4.58623418E-03  1.02560127E+00  1.39647077E+00  4.58623418E-03
  1.02560127E+00  1.39647077E+00  4.58623418E-03  1.02560127E+00  1.39647077E+00
  4.58623418E-03  1.02560127E+00  1.39647077E+00  4.58623418E-03  1.02560127E+00
  1.39647077E+00  4.58623418E-03  1.02560127E+00  1.39647077E+00  4.58623418E-03
  1.02560127E+00  1.39647077E+00  4.58623418E-03  1.02560127E+00  1.39647077E+00
  4.58623418E-03  1.02560127E+00  1.39647077E+00  4.58623418E-03  1.02560127E+00
  1.39647077E+00  4.58623418E-03  1.02560127E+00  1.39647077E+00  4.58623418E-03
  1.02560127E+00  1.39647077E+00  4.58623418E-03  1.02560127E+00  1.39647077E+00
  4.58623418E-03 -1.56001734E+00  1.04117876E+00  5.73012922E-03 -1.56001734E+00
  1.04117876E+00  5.73012922E-03 -1.56001734E+00  1.04117876E+00  5.73012922E-03
 -1.56001734E+00  1.04117876E+00  5.73012922E-03 -1.56001734E+00  1.04117876E+00
  5.73012922E-03 -1.56001734E+00  1.04117876E+00  5.73012922E-03 -1.56001734E+00
  1.04117876E+00  5.73012922E-03 -1.56001734E+00  1.04117876E+00  5.73012922E-03
 -1.56001734E+00  1.04117876E+00  5.73012922E-03 -1.56001734E+00  1.04117876E+00
  5.73012922E-03 -1.56001734E+00  1.04117876E+00  5.73012922E-03 -1.56001734E+00
  1.04117876E+00  5.73012922E-03 -1.56001734E+00  1.04117876E+00  5.73012922E-03
 -1.56001734E+00  1.04117876E+00  5.73012922E-03 -2.20166360E+00 -1.12348447E+00
 -1.12325630E-02 -2.20166360E+00 -1.12348447E+00 -1.12325630E-02 -2.20166360E+00
 -1.12348447E+00 -1.12325630E-02 -2.20166360E+00 -1.12348447E+00 -1.12325630E-02
 -2.20166360E+00 -1.12348447E+00 -1.12325630E-02 -2.20166360E+00 -1.12348447E+00
 -1.12325630E-02 -2.20166360E+00 -1.12348447E+00 -1.12325630E-02 -2.20166360E+00
 -1.12348447E+00 -1.12325630E-02 -2.20166360E+00 -1.12348447E+00 -1.12325630E-02
 -2.20166360E+00 -1.12348447E+00 -1.12325630E-02 -2.20166360E+00 -1.12348447E+00
 -1.12325630E-02 -2.20166360E+00 -1.12348447E+00 -1.12325630E-02 -2.20166360E+00
 -1.12348447E+00 -1.12325630E-02 -2.20166360E+00 -1.12348447E+00 -1.12325630E-02
Num ILSW                                   I              100
ILSW                                       I   N=         100
           0           0           0           0           2           0
           0           0           0           0           0          -1
           5           0           0           0           2           0
           0           0           0           0           1           0
           1           0           0           0           0           0
           0           0      100000           0          -1           0
           0           0           0           0           0           0
           0           0           0           1           1           0
           0 -2000000000           1           0           0           0
           0           0           4          52           0           0
           0           0           0           0           0           0
           0           0           0           5           4           1
           0           0           0           0           0           0
           0           0           0           0           0           0
           0           0           0           0           0           0
           0           0           0           0           0           0
           0           0           0           0
Num RLSW                                   I               52
RLSW                                       R   N=          52
  1.00000000E+00  1.00000000E+00  1.00000000E+00  1.00000000E+00  1.00000000E+00
  0.00000000E+00  0.00000000E+00  1.00000000E+00  0.00000000E+00  0.00000000E+00
  0.00000000E+00  0.00000000E+00  1.00000000E+00  0.00000000E+00  0.00000000E+00
  0.00000000E+00  0.00000000E+00  1.00000000E+00  0.00000000E+00  0.00000000E+00
  0.00000000E+00  0.00000000E+00  1.00000000E+00  0.00000000E+00  0.00000000E+00
  0.00000000E+00  0.00000000E+00  1.00000000E+00  0.00000000E+00  0.00000000E+00
  0.00000000E+00  0.00000000E+00  1.00000000E+00  0.00000000E+00  0.00000000E+00
  0.00000000E+00  0.00000000E+00  0.00000000E+00  1.00000000E+00  1.00000000E+00
  0.00000000E+00  1.00000000E+00  0.00000000E+00  0.00000000E+00  0.00000000E+00
  0.00000000E+00  0.00000000E+00  0.00000000E+00  0.00000000E+00  0.00000000E+00
  0.00000000E+00  0.00000000E+00
MxBond                                     I                2
NBond                                      I   N=           5
           1           2           2           2           1
IBond                                      I   N=          10
           2           0           1           3           2           4
           3           5           4           0
RBond                                      R   N=          10
  1.00000000E+00  0.00000000E+00  1.00000000E+00  1.00000000E+00  1.00000000E+00
  1.00000000E+00  1.00000000E+00  2.00000000E+00  2.00000000E+00  0.00000000E+00
Virial Ratio                               R      2.002228600147995E+00
SCF Energy                                 R     -2.795063820487462E+02
MP2 Energy                                 R     -2.804551501623050E+02
Total Energy                               R     -2.804551501623050E+02
Post-SCF wavefunction norm                 R      1.583722805336835E+00
RMS Force                                  R      6.065209043988771E-04
RMS Density                                R      6.311033870137763E-09
NImag                                      I                0
Job Status                                 I                1
Nuclear derivative order                   I                2
External E-field                           R   N=          35
  0.00000000E+00  0.00000000E+00  0.00000000E+00  0.00000000E+00  0.00000000E+00
  0.00000000E+00  0.00000000E+00  0.00000000E+00  0.00000000E+00  0.00000000E+00
  0.00000000E+00  0.00000000E+00  0.00000000E+00  0.00000000E+00  0.00000000E+00
  0.00000000E+00  0.00000000E+00  0.00000000E+00  0.00000000E+00  0.00000000E+00
  0.00000000E+00  0.00000000E+00  0.00000000E+00  0.00000000E+00  0.00000000E+00
  0.00000000E+00  0.00000000E+00  0.00000000E+00  0.00000000E+00  0.00000000E+00
  0.00000000E+00  0.00000000E+00  0.00000000E+00  0.00000000E+00  0.00000000E+00
IOpCl                                      I                0
IROHF                                      I                0
Alpha Orbital Energies                     R   N=         207
 -2.07197309E+01 -2.06870491E+01 -2.06684250E+01 -1.58258394E+01 -1.64409558E+00
 -1.50511406E+00 -1.29373260E+00 -9.60247685E-01 -8.34284126E-01 -7.58800759E-01
 -7.40049098E-01 -6.37941685E-01 -6.19181938E-01 -6.17146212E-01 -5.04567670E-01
 -4.97579462E-01  3.50079891E-02  6.03873645E-02  9.51178707E-02  1.00398979E-01
  1.19317488E-01  1.22635257E-01  1.49667608E-01  1.51943485E-01  1.77014512E-01
  1.80859476E-01  1.89373239E-01  2.11524251E-01  2.16824583E-01  2.42392421E-01
  2.46284125E-01  2.68970601E-01  3.05645673E-01  3.23575538E-01  3.38231569E-01
  3.43899734E-01  3.47004667E-01  3.92652057E-01  4.45943840E-01  4.87081975E-01
  5.07580315E-01  5.18517731E-01  5.44751746E-01  5.61448299E-01  5.98843132E-01
  6.20347587E-01  6.38077199E-01  6.89782852E-01  7.13829683E-01  7.27051813E-01
  7.43253370E-01  7.61523348E-01  7.69798415E-01  7.93112060E-01  8.06317272E-01
  8.40247374E-01  8.43936630E-01  8.53053753E-01  8.87316837E-01  9.07330644E-01
  9.29463642E-01  9.50977315E-01  9.54094571E-01  1.01780649E+00  1.03369364E+00
  1.05938838E+00  1.06511989E+00  1.09630835E+00  1.14194983E+00  1.15573806E+00
  1.17096978E+00  1.21739831E+00  1.23161791E+00  1.24640093E+00  1.34998238E+00
  1.36125446E+00  1.37010580E+00  1.46323012E+00  1.49328718E+00  1.50621069E+00
  1.53833547E+00  1.58439523E+00  1.59985519E+00  1.61513923E+00  1.62941107E+00
  1.69509845E+00  1.73909219E+00  1.80187643E+00  1.82940930E+00  1.88962571E+00
  1.89465715E+00  1.92931198E+00  1.97719397E+00  1.99280366E+00  2.05113484E+00
  2.12318555E+00  2.12950718E+00  2.16741348E+00  2.18915056E+00  2.24257264E+00
  2.26089167E+00  2.29682056E+00  2.35124356E+00  2.36549288E+00  2.38773586E+00
  2.40130236E+00  2.43242042E+00  2.46667760E+00  2.48127679E+00  2.52858181E+00
  2.53443447E+00  2.54924705E+00  2.56331186E+00  2.61599364E+00  2.63025665E+00
  2.66644715E+00  2.67383465E+00  2.75408405E+00  2.80936541E+00  2.81962629E+00
  2.84323175E+00  2.91842576E+00  2.98393280E+00  3.04468904E+00  3.05168987E+00
  3.11242973E+00  3.12185082E+00  3.17066235E+00  3.21138070E+00  3.30509541E+00
  3.33491734E+00  3.36053951E+00  3.47641252E+00  3.67829507E+00  3.86527519E+00
  3.93055421E+00  4.17096422E+00  4.22011817E+00  4.23839592E+00  4.27405401E+00
  4.37256147E+00  4.49987555E+00  4.52359436E+00  4.55511262E+00  4.60290191E+00
  4.69404980E+00  4.80996201E+00  4.89645481E+00  4.91748183E+00  4.94323878E+00
  4.99684484E+00  5.00690622E+00  5.10608296E+00  5.13223386E+00  5.18196504E+00
  5.25001681E+00  5.25965590E+00  5.31657780E+00  5.34471756E+00  5.35635132E+00
  5.54755936E+00  5.64470503E+00  5.70515513E+00  5.88906636E+00  5.99692596E+00
  6.26682989E+00  6.29639063E+00  6.35938477E+00  6.37633424E+00  6.59990218E+00
  6.65323384E+00  6.66721024E+00  6.69133550E+00  6.72595251E+00  6.78556446E+00
  6.81099702E+00  6.85452377E+00  6.96659524E+00  7.01801831E+00  7.06783705E+00
  7.08333934E+00  7.13937338E+00  7.17036012E+00  7.17941114E+00  7.20292263E+00
  7.24560522E+00  7.24834648E+00  7.27332440E+00  7.34918555E+00  7.39418303E+00
  7.42693869E+00  7.44320393E+00  7.46191395E+00  7.56007794E+00  7.66149140E+00
  7.66610423E+00  7.79648149E+00  7.88394755E+00  7.95193590E+00  8.05710693E+00
  8.30610556E+00  8.49777571E+00  8.65106309E+00  1.36187763E+01  1.47631836E+01
  1.50948962E+01  1.57583807E+01
Alpha MO coefficients                      R   N=       42849
  6.47398720E-05 -5.23938218E-05 -1.06891158E-03  1.21549198E-05 -1.64304238E-05
  6.41160026E-05  4.19755671E-06 -2.42167123E-04 -1.91139279E-04 -1.20773790E-05
 -2.06957298E-04 -2.72789702E-04 -1.85926029E-05  4.32695046E-05  6.14778498E-06
 -4.63093975E-06  5.28407638E-06  2.75174353E-05  2.23011957E-04  3.41705849E-05
 -1.60280768E-05 -2.00287811E-04 -2.44769340E-05  3.08339452E-03 -9.74068590E-05
 -9.88709068E-05  3.54510658E-03  2.45915923E-03  5.11677046E-05 -1.03777260E-04
 -2.42178173E-06 -4.18625079E-04  6.62194835E-04  1.87549719E-05 -9.58172570E-04
  2.06440736E-03  7.51998870E-05 -4.06225799E-04  3.49284366E-04  2.66391212E-05
  2.02687131E-05  1.61562672E-06  7.17086539E-07  3.92222452E-05  2.17008733E-05
 -4.42409774E-04 -1.46051254E-05  3.40340475E-06 -5.02238769E-04 -6.06053248E-04
 -3.65842450E-04 -1.34390283E-05  8.19300535E-06 -5.31849456E-04 -7.37859110E-04
  3.91113993E-07  2.87593155E-05 -8.59246484E-05 -1.83643595E-06 -1.74485851E-06
  1.11497506E-04 -8.95157055E-06 -1.33430673E-05  1.37445695E-04 -1.64176010E-04
 -2.47982909E-06 -9.56014293E-06  3.37503437E-04  6.25576540E-05  9.76903747E-01
 -9.17351645E-03  4.34072754E-02  4.89694617E-04 -2.20501621E-03 -9.08674186E-04
 -1.99729851E-03 -1.13225149E-05  1.07615346E-03  2.00579239E-03  8.50452255E-06
 -2.14468358E-03  9.86742858E-04  2.61520460E-05 -1.20449173E-04  2.07930126E-04
  1.44867750E-06  7.12894702E-06  2.58378129E-07 -4.67842367E-07  3.46762588E-05
  1.61364796E-05  8.27506418E-04  3.12655204E-06 -6.90194809E-06 -3.05518903E-04
  4.01555454E-04 -1.39397161E-04 -6.82701811E-06 -5.06887182E-06  1.77279990E-04
  6.26503582E-04  3.46238749E-08 -5.21402749E-05 -6.00975294E-05 -3.52909560E-07
 -4.48272627E-07  4.85150211E-05 -7.08341880E-06 -4.30988880E-06  7.48849564E-05
 -5.42634361E-05 -1.03158829E-06 -2.29360235E-06  4.68127872E-04  1.95235159E-04
  1.04488559E-04  4.58274923E-04 -3.23489691E-04 -8.23510355E-04  3.69437504E-04
 -9.47721263E-05 -5.45034007E-05  7.42680390E-07  1.21953568E-03  4.81985021E-04
 -1.48229825E-06 -1.01104864E-03 -8.01685673E-05 -6.24349137E-06  2.84694075E-04
  5.43318570E-05  3.01513011E-07 -5.24484367E-05  3.80022782E-07 -3.34490793E-07
  9.45650650E-05  9.30456640E-06 -4.16024164E-04 -5.82261490E-06 -2.13975598E-06
  1.04460844E-03  2.86642073E-04  2.53341064E-05 -5.42482202E-06 -3.42914201E-06
 -6.54601830E-05  3.12850825E-04  3.73698349E-07 -1.30654160E-04 -4.51868203E-05
 -8.70936514E-07  1.14882037E-06  1.31786999E-04  5.68143557E-05  2.41312013E-06
 -7.24722332E-05  1.11722237E-04 -3.54775408E-06 -3.19641609E-06  4.89534357E-04
 -1.83287117E-04 -7.02688488E-04  4.74388469E-05 -7.01112947E-05  1.93928017E-04
 -1.97925260E-04 -4.76272274E-05 -1.61995337E-05  9.33942825E-07  2.85480473E-04
  1.03694939E-04 -5.30965922E-06  6.14475749E-04 -4.99507725E-05  3.31149631E-05
 -2.15524202E-04  7.50201600E-05  3.36026131E-06 -1.31208598E-05 -8.53878616E-07
  3.16025112E-07  1.56164476E-05  1.10879511E-06 -1.51099411E-06  3.18766704E-06
 -6.83348813E-07 -3.95865323E-05  1.61215194E-04 -1.83484441E-05  3.12227747E-05
 -1.09053605E-05 -8.93894463E-05  1.55719461E-04  2.58781004E-06 -1.05766958E-05
 -3.56457645E-06 -2.32900521E-06  1.85675280E-06  1.55446564E-05  1.70838795E-05
 -8.99734960E-06  6.99116594E-05  2.44218050E-05  8.39769386E-06 -5.41834919E-06
 -1.48488471E-04 -1.13469345E-04  4.03781056E-05  7.27081635E-05 -1.46868886E-04
 -3.10503573E-05  2.06682037E-05 -1.79963227E-06 -7.18390014E-07  2.25995463E-04
 -8.46337522E-05 -3.93947251E-06  1.07918278E-04 -5.70949865E-05  9.57198449E-06
  1.36235881E-05 -4.27963898E-06  2.49549206E-06  9.84488903E-06  1.76614873E-05
  2.63557277E-05  2.08749904E-06  1.73466943E-06  2.23817844E-05  1.11524100E-04
 -2.62413206E-04  2.64053220E-05 -1.54503882E-05 -5.53872833E-04  1.76387730E-04
  1.38894915E-05  6.79284652E-06  9.62986324E-07 -2.43430020E-05 -3.40225279E-05
 -7.00325914E-06  2.41516340E-04 -1.11767373E-05 -1.34686464E-05 -1.16900029E-05
  6.27355837E-05 -3.29196826E-06 -1.35442700E-06  6.25907261E-07 -8.77146794E-07
 -1.31852227E-05  4.54128606E-06  2.09165993E-05 -1.03697489E-07  5.67932146E-06
  1.15626561E-04 -1.57282644E-05  6.12103251E-05 -1.88947233E-06  8.45265991E-06
 -9.31378215E-05  3.16081493E-06  1.53321464E-06  1.24292563E-05  3.54614660E-06
 -1.39912106E-06 -3.13817276E-07 -2.31248620E-05  8.94243549E-06 -3.59414581E-06
 -3.30305006E-05 -1.94889597E-05  8.18987181E-06 -4.10118049E-06 -1.48011459E-05
  1.08239671E-05  7.30943158E-04  2.26198507E-05 -1.87417358E-05  2.90644833E-04
 -3.99006988E-04  2.94433855E-05  1.19333433E-05  4.80358454E-07 -1.44255920E-04
 -8.29794513E-05 -2.29702861E-06  1.00326098E-05 -2.58715990E-04  9.27179083E-06
 -3.92268365E-05  2.08118996E-04  5.59223639E-06 -4.03585196E-06  6.27957427E-07
 -2.04267685E-07 -1.81885225E-05  2.51418003E-05 -5.10851932E-05 -3.01294089E-06
  1.89604464E-06  1.40281175E-04 -3.90457507E-05 -6.40972928E-05 -8.21929115E-06
 -2.10196780E-06  3.31175988E-05 -3.25471587E-05  8.19986582E-07  4.55910751E-06
  8.54907560E-07  2.09974997E-07 -1.30809670E-07  4.07870768E-07  8.19252507E-06
 -2.85401444E-06 -1.26000233E-05 -2.22601924E-05  2.76516532E-06  3.27826269E-06
 -1.76403651E-04 -4.07793058E-05  2.37312382E-04  1.35887464E-03 -1.47484714E-04
 -6.60649151E-04  9.10957265E-04  8.95418267E-06 -9.46292584E-05 -1.72295753E-07
 -7.72106930E-04 -2.01822752E-03 -1.72604297E-05  3.93311553E-04  3.25555131E-04
 -1.35590633E-05 -3.12229007E-05 -3.57671117E-04 -2.73253693E-06 -1.27703805E-04
  1.52541968E-06  3.19604182E-06 -2.12283327E-04  1.47172172E-04 -4.61772744E-04
 -2.99943321E-06  1.36290540E-05 -1.05822026E-03  3.01759974E-04 -4.33124119E-05
 -5.98370273E-06  9.93290383E-07  1.28493507E-04 -2.41241679E-05  5.91430661E-07
  2.86496787E-05  2.48264525E-05  4.27718074E-07  7.53081450E-07  4.18041476E-06
  2.46341670E-05  5.01451416E-06 -1.55617126E-05  2.07574863E-04  2.43062949E-06
 -1.61292901E-06  7.00607790E-05  3.09148320E-04  9.76646090E-01 -9.88660971E-03
  4.35755003E-02  3.67837086E-03 -8.98569916E-04  8.99316110E-04  1.98413942E-03
  2.29437690E-05 -1.07004736E-03 -2.32401931E-03 -2.51406443E-05  4.26310749E-04
  6.88278476E-04  2.50510335E-05  4.55006718E-05 -1.14431775E-04 -7.03725494E-07
 -1.94150735E-04 -1.07031674E-06  3.94286149E-06 -6.37186192E-05  5.77986910E-05
  4.09308514E-04 -4.68006408E-06 -1.35970311E-05  7.19036912E-04 -6.74968080E-04
 -2.06126918E-04  1.36545615E-05  6.20229882E-06 -7.43820170E-05  1.18515858E-04
  2.57918945E-06  3.78214388E-05  5.94601433E-05 -5.99872107E-07 -5.40869212E-07
  1.94744568E-05  2.43572912E-05 -3.34341658E-06 -1.73634105E-05  1.26961570E-04
  9.79417878E-06 -4.24291059E-06  2.47486524E-04  9.03080321E-05  3.76024253E-04
  1.98419133E-03  1.34615582E-03 -1.63233727E-05  2.00192306E-04  1.86315210E-04
 -2.01576917E-05  9.05830618E-04  5.95115170E-04 -1.09536975E-04  4.58310153E-05
  2.55528125E-04 -4.04491200E-05 -2.32277819E-05  2.83170184E-06 -9.23125384E-07
 -1.74520469E-05 -3.96973742E-05 -2.11041401E-04 -3.95577043E-05 -4.30094407E-05
  2.81670730E-04  4.46610952E-04  9.76834935E-01 -9.18544815E-03  4.34648340E-02
  1.44990025E-04 -1.89676262E-03 -2.13649699E-03  5.38955425E-04  1.52789007E-04
  2.12981636E-03 -6.14270198E-04 -1.40113392E-04  4.35212442E-05  7.49099400E-04
 -6.12900320E-05  1.10867433E-06 -3.68381413E-04  1.33196620E-06  3.11020515E-05
 -1.02189270E-06 -2.46545150E-06  3.80012677E-05  8.99421341E-05  7.58594023E-04
  6.65473438E-05  4.96079920E-05  2.75341879E-04  3.07512265E-04 -2.39462360E-04
 -4.21208341E-07  2.62118198E-05  1.09265718E-04 -3.16732232E-04  4.89524041E-06
 -6.35429574E-05  4.90020900E-05 -3.35017556E-06 -2.82015104E-07 -4.62565089E-05