title                                                                   
Freq      RMP2-FC                                                     Aug-CC-pVTZ         
Number of atoms                            I                5
Info1-9                                    I   N=           9
          33          24           0           0           0         100
           6           2           1
Full Title                                 C   N=           1
title       
Route                                      C   N=           4
#p freq mp2/aug-cc-pvtz density=current         
Charge                                     I                0
Multiplicity                               I                1
Number of electrons                        I               32
Number of alpha electrons                  I               16
Number of beta electrons                   I               16
Number of basis functions                  I              207
Number of independent functions            I              207
Number of point charges in /Mol/           I                0
Number of translation vectors              I                0
Atomic numbers                             I   N=           5
           1           8           8           7           8
Nuclear charges                            R   N=           5
  1.00000000E+00  8.00000000E+00  8.00000000E+00  7.00000000E+00  8.00000000E+00
Current cartesian coordinates              R   N=          15
  2.09403848E+00 -1.13964115E+00  0.00000000E+00  2.48659751E+00  6.91050149E-01
  0.00000000E+00 -7.04762959E-17  1.73316916E+00  0.00000000E+00 -1.87348947E+00
 -8.38873867E-02  0.00000000E+00 -1.10904903E+00 -2.20836270E+00  0.00000000E+00
Number of symbols in /Mol/                 I                0
Force Field                                I                0
Atom Types                                 C   N=           5
                                                            
Int Atom Types                             I   N=           5
           0           0           0           0           0
MM charges                                 R   N=           5
  0.00000000E+00  0.00000000E+00  0.00000000E+00  0.00000000E+00  0.00000000E+00
Integer atomic weights                     I   N=           5
           1          16          16          14          16
Real atomic weights                        R   N=           5
  1.00782504E+00  1.59949146E+01  1.59949146E+01  1.40030740E+01  1.59949146E+01
Atom fragment info                         I   N=           5
           0           0           0           0           0
Atom residue num                           I   N=           5
           0           0           0           0           0
Nuclear spins                              I   N=           5
           1           0           0           2           0
Nuclear ZEff                               R   N=           5
 -1.00000000E+00 -5.60000000E+00 -5.60000000E+00 -4.55000000E+00 -5.60000000E+00
Nuclear ZNuc                               R   N=           5
  1.00000000E+00  8.00000000E+00  8.00000000E+00  7.00000000E+00  8.00000000E+00
Nuclear QMom                               R   N=           5
  0.00000000E+00  0.00000000E+00  0.00000000E+00  2.04400000E+00  0.00000000E+00
Nuclear GFac                               R   N=           5
  2.79284600E+00  0.00000000E+00  0.00000000E+00  4.03761000E-01  0.00000000E+00
MicOpt                                     I   N=           5
          -1          -1          -1          -1          -1
Number of residues                         I                0
Number of secondary structures             I                0
SymInf integers                            I   N=          26
           1           2           1           1           1           1
           1          -1           0           0           0           0
           0           0           0           0           0           0
           0           0           0           0           0           0
           0           0
RotTr to input orientation                 R   N=          12
 -9.77773074E-01  0.00000000E+00  2.09665962E-01  2.09665962E-01  0.00000000E+00
  9.77773074E-01  0.00000000E+00  1.00000000E+00  0.00000000E+00  2.28643840E+00
  0.00000000E+00  6.75261838E-01
Number of contracted shells                I               65
Number of primitive shells                 I              119
Pure/Cartesian d shells                    I                0
Pure/Cartesian f shells                    I                0
Highest angular momentum                   I                3
Largest degree of contraction              I                7
Shell types                                I   N=          65
           0           0           0           0           1           1
           1          -2          -2           0           0           0
           0           0           1           1           1           1
          -2          -2          -2          -3          -3           0
           0           0           0           0           1           1
           1           1          -2          -2          -2          -3
          -3           0           0           0           0           0
           1           1           1           1          -2          -2
          -2          -3          -3           0           0           0
           0           0           1           1           1           1
          -2          -2          -2          -3          -3
Number of primitives per shell             I   N=          65
           3           1           1           1           1           1
           1           1           1           7           6           1
           1           1           3           1           1           1
           1           1           1           1           1           7
           6           1           1           1           3           1
           1           1           1           1           1           1
           1           7           6           1           1           1
           3           1           1           1           1           1
           1           1           1           7           6           1
           1           1           3           1           1           1
           1           1           1           1           1
Shell to atom map                          I   N=          65
           1           1           1           1           1           1
           1           1           1           2           2           2
           2           2           2           2           2           2
           2           2           2           2           2           3
           3           3           3           3           3           3
           3           3           3           3           3           3
           3           4           4           4           4           4
           4           4           4           4           4           4
           4           4           4           5           5           5
           5           5           5           5           5           5
           5           5           5           5           5
Primitive exponents                        R   N=         119
  3.38700000E+01  5.09500000E+00  1.15900000E+00  3.25800000E-01  1.02700000E-01
  2.52600000E-02  1.40700000E+00  3.88000000E-01  1.02000000E-01  1.05700000E+00
  2.47000000E-01  1.53300000E+04  2.29900000E+03  5.22400000E+02  1.47300000E+02
  4.75500000E+01  1.67600000E+01  6.20700000E+00  5.22400000E+02  1.47300000E+02
  4.75500000E+01  1.67600000E+01  6.20700000E+00  6.88200000E-01  1.75200000E+00
  2.38400000E-01  7.37600000E-02  3.44600000E+01  7.74900000E+00  2.28000000E+00
  7.15600000E-01  2.14000000E-01  5.97400000E-02  2.31400000E+00  6.45000000E-01
  2.14000000E-01  1.42800000E+00  5.00000000E-01  1.53300000E+04  2.29900000E+03
  5.22400000E+02  1.47300000E+02  4.75500000E+01  1.67600000E+01  6.20700000E+00
  5.22400000E+02  1.47300000E+02  4.75500000E+01  1.67600000E+01  6.20700000E+00
  6.88200000E-01  1.75200000E+00  2.38400000E-01  7.37600000E-02  3.44600000E+01
  7.74900000E+00  2.28000000E+00  7.15600000E-01  2.14000000E-01  5.97400000E-02
  2.31400000E+00  6.45000000E-01  2.14000000E-01  1.42800000E+00  5.00000000E-01
  1.14200000E+04  1.71200000E+03  3.89300000E+02  1.10000000E+02  3.55700000E+01
  1.25400000E+01  4.64400000E+00  3.89300000E+02  1.10000000E+02  3.55700000E+01
  1.25400000E+01  4.64400000E+00  5.11800000E-01  1.29300000E+00  1.78700000E-01
  5.76000000E-02  2.66300000E+01  5.94800000E+00  1.74200000E+00  5.55000000E-01
  1.72500000E-01  4.91000000E-02  1.65400000E+00  4.69000000E-01  1.51000000E-01
  1.09300000E+00  3.64000000E-01  1.53300000E+04  2.29900000E+03  5.22400000E+02
  1.47300000E+02  4.75500000E+01  1.67600000E+01  6.20700000E+00  5.22400000E+02
  1.47300000E+02  4.75500000E+01  1.67600000E+01  6.20700000E+00  6.88200000E-01
  1.75200000E+00  2.38400000E-01  7.37600000E-02  3.44600000E+01  7.74900000E+00
  2.28000000E+00  7.15600000E-01  2.14000000E-01  5.97400000E-02  2.31400000E+00
  6.45000000E-01  2.14000000E-01  1.42800000E+00  5.00000000E-01
Contraction coefficients                   R   N=         119
  2.54948632E-02  1.90362766E-01  8.52162022E-01  1.00000000E+00  1.00000000E+00
  1.00000000E+00  1.00000000E+00  1.00000000E+00  1.00000000E+00  1.00000000E+00
  1.00000000E+00  5.19808943E-04  4.02025621E-03  2.07128267E-02  8.10105536E-02
  2.35962985E-01  4.42653446E-01  3.57064423E-01 -4.42115008E-05 -1.22591041E-03
 -1.05517725E-02 -6.74452633E-02 -1.71198607E-01  1.07329856E+00  1.00000000E+00
  1.00000000E+00  1.00000000E+00  4.11634896E-02  2.57762836E-01  8.02419274E-01
  1.00000000E+00  1.00000000E+00  1.00000000E+00  1.00000000E+00  1.00000000E+00
  1.00000000E+00  1.00000000E+00  1.00000000E+00  5.19808943E-04  4.02025621E-03
  2.07128267E-02  8.10105536E-02  2.35962985E-01  4.42653446E-01  3.57064423E-01
 -4.42115008E-05 -1.22591041E-03 -1.05517725E-02 -6.74452633E-02 -1.71198607E-01
  1.07329856E+00  1.00000000E+00  1.00000000E+00  1.00000000E+00  4.11634896E-02
  2.57762836E-01  8.02419274E-01  1.00000000E+00  1.00000000E+00  1.00000000E+00
  1.00000000E+00  1.00000000E+00  1.00000000E+00  1.00000000E+00  1.00000000E+00
  5.34563860E-04  4.13435660E-03  2.12335358E-02  8.25006224E-02  2.38138871E-01
  4.42551547E-01  3.53757422E-01 -4.89867350E-05 -1.19527323E-03 -1.03490714E-02
 -6.48680190E-02 -1.71552477E-01  1.07289568E+00  1.00000000E+00  1.00000000E+00
  1.00000000E+00  3.98072123E-02  2.49002660E-01  8.10479727E-01  1.00000000E+00
  1.00000000E+00  1.00000000E+00  1.00000000E+00  1.00000000E+00  1.00000000E+00
  1.00000000E+00  1.00000000E+00  5.19808943E-04  4.02025621E-03  2.07128267E-02
  8.10105536E-02  2.35962985E-01  4.42653446E-01  3.57064423E-01 -4.42115008E-05
 -1.22591041E-03 -1.05517725E-02 -6.74452633E-02 -1.71198607E-01  1.07329856E+00
  1.00000000E+00  1.00000000E+00  1.00000000E+00  4.11634896E-02  2.57762836E-01
  8.02419274E-01  1.00000000E+00  1.00000000E+00  1.00000000E+00  1.00000000E+00
  1.00000000E+00  1.00000000E+00  1.00000000E+00  1.00000000E+00
Coordinates of each shell                  R   N=         195
  2.09403848E+00 -1.13964115E+00  0.00000000E+00  2.09403848E+00 -1.13964115E+00
  0.00000000E+00  2.09403848E+00 -1.13964115E+00  0.00000000E+00  2.09403848E+00
 -1.13964115E+00  0.00000000E+00  2.09403848E+00 -1.13964115E+00  0.00000000E+00
  2.09403848E+00 -1.13964115E+00  0.00000000E+00  2.09403848E+00 -1.13964115E+00
  0.00000000E+00  2.09403848E+00 -1.13964115E+00  0.00000000E+00  2.09403848E+00
 -1.13964115E+00  0.00000000E+00  2.48659751E+00  6.91050149E-01  0.00000000E+00
  2.48659751E+00  6.91050149E-01  0.00000000E+00  2.48659751E+00  6.91050149E-01
  0.00000000E+00  2.48659751E+00  6.91050149E-01  0.00000000E+00  2.48659751E+00
  6.91050149E-01  0.00000000E+00  2.48659751E+00  6.91050149E-01  0.00000000E+00
  2.48659751E+00  6.91050149E-01  0.00000000E+00  2.48659751E+00  6.91050149E-01
  0.00000000E+00  2.48659751E+00  6.91050149E-01  0.00000000E+00  2.48659751E+00
  6.91050149E-01  0.00000000E+00  2.48659751E+00  6.91050149E-01  0.00000000E+00
  2.48659751E+00  6.91050149E-01  0.00000000E+00  2.48659751E+00  6.91050149E-01
  0.00000000E+00  2.48659751E+00  6.91050149E-01  0.00000000E+00  1.14120736E-17
  1.73316916E+00  0.00000000E+00  1.14120736E-17  1.73316916E+00  0.00000000E+00
  1.14120736E-17  1.73316916E+00  0.00000000E+00  1.14120736E-17  1.73316916E+00
  0.00000000E+00  1.14120736E-17  1.73316916E+00  0.00000000E+00  1.14120736E-17
  1.73316916E+00  0.00000000E+00  1.14120736E-17  1.73316916E+00  0.00000000E+00
  1.14120736E-17  1.73316916E+00  0.00000000E+00  1.14120736E-17  1.73316916E+00
  0.00000000E+00  1.14120736E-17  1.73316916E+00  0.00000000E+00  1.14120736E-17
  1.73316916E+00  0.00000000E+00  1.14120736E-17  1.73316916E+00  0.00000000E+00
  1.14120736E-17  1.73316916E+00  0.00000000E+00  1.14120736E-17  1.73316916E+00
  0.00000000E+00 -1.87348947E+00 -8.38873867E-02  0.00000000E+00 -1.87348947E+00
 -8.38873867E-02  0.00000000E+00 -1.87348947E+00 -8.38873867E-02  0.00000000E+00
 -1.87348947E+00 -8.38873867E-02  0.00000000E+00 -1.87348947E+00 -8.38873867E-02
  0.00000000E+00 -1.87348947E+00 -8.38873867E-02  0.00000000E+00 -1.87348947E+00
 -8.38873867E-02  0.00000000E+00 -1.87348947E+00 -8.38873867E-02  0.00000000E+00
 -1.87348947E+00 -8.38873867E-02  0.00000000E+00 -1.87348947E+00 -8.38873867E-02
  0.00000000E+00 -1.87348947E+00 -8.38873867E-02  0.00000000E+00 -1.87348947E+00
 -8.38873867E-02  0.00000000E+00 -1.87348947E+00 -8.38873867E-02  0.00000000E+00
 -1.87348947E+00 -8.38873867E-02  0.00000000E+00 -1.10904903E+00 -2.20836270E+00
  0.00000000E+00 -1.10904903E+00 -2.20836270E+00  0.00000000E+00 -1.10904903E+00
 -2.20836270E+00  0.00000000E+00 -1.10904903E+00 -2.20836270E+00  0.00000000E+00
 -1.10904903E+00 -2.20836270E+00  0.00000000E+00 -1.10904903E+00 -2.20836270E+00
  0.00000000E+00 -1.10904903E+00 -2.20836270E+00  0.00000000E+00 -1.10904903E+00
 -2.20836270E+00  0.00000000E+00 -1.10904903E+00 -2.20836270E+00  0.00000000E+00
 -1.10904903E+00 -2.20836270E+00  0.00000000E+00 -1.10904903E+00 -2.20836270E+00
  0.00000000E+00 -1.10904903E+00 -2.20836270E+00  0.00000000E+00 -1.10904903E+00
 -2.20836270E+00  0.00000000E+00 -1.10904903E+00 -2.20836270E+00  0.00000000E+00
Num ILSW                                   I              100
ILSW                                       I   N=         100
           0           0           0           0           2           0
           0           0           0           0           0          -1
           5           0           0           0           2           0
           0           0           0           0           1           0
           1           0           0           0           0           0
           0           0      100000           0          -1           0
           0           0           0           0           0           0
           0           0           0           1           1           0
           0 -2000000000           1           0           0           0
           0           0           4          52           0           0
           0           0           0           0           0           0
           0           0           0           5           4           1
           0           0           0           0           0           0
           0           0           0           0           0           0
           0           0           0           0           0           0
           0           0           0           0           0           0
           0           0           0           0
Num RLSW                                   I               52
RLSW                                       R   N=          52
  1.00000000E+00  1.00000000E+00  1.00000000E+00  1.00000000E+00  1.00000000E+00
  0.00000000E+00  0.00000000E+00  1.00000000E+00  0.00000000E+00  0.00000000E+00
  0.00000000E+00  0.00000000E+00  1.00000000E+00  0.00000000E+00  0.00000000E+00
  0.00000000E+00  0.00000000E+00  1.00000000E+00  0.00000000E+00  0.00000000E+00
  0.00000000E+00  0.00000000E+00  1.00000000E+00  0.00000000E+00  0.00000000E+00
  0.00000000E+00  0.00000000E+00  1.00000000E+00  0.00000000E+00  0.00000000E+00
  0.00000000E+00  0.00000000E+00  1.00000000E+00  0.00000000E+00  0.00000000E+00
  0.00000000E+00  0.00000000E+00  0.00000000E+00  1.00000000E+00  1.00000000E+00
  0.00000000E+00  1.00000000E+00  0.00000000E+00  0.00000000E+00  0.00000000E+00
  0.00000000E+00  0.00000000E+00  0.00000000E+00  0.00000000E+00  0.00000000E+00
  0.00000000E+00  0.00000000E+00
MxBond                                     I                2
NBond                                      I   N=           5
           1           2           2           2           1
IBond                                      I   N=          10
           2           0           1           3           2           4
           3           5           4           0
RBond                                      R   N=          10
  1.00000000E+00  0.00000000E+00  1.00000000E+00  1.00000000E+00  1.00000000E+00
  1.00000000E+00  1.00000000E+00  2.00000000E+00  2.00000000E+00  0.00000000E+00
Virial Ratio                               R      2.002259764779838E+00
SCF Energy                                 R     -2.795060818435215E+02
MP2 Energy                                 R     -2.804552179967075E+02
Total Energy                               R     -2.804552179967075E+02
Post-SCF wavefunction norm                 R      1.583883703853936E+00
RMS Force                                  R      1.565637085178806E-03
RMS Density                                R      4.499638989970808E-09
NImag                                      I                0
Job Status                                 I                1
Nuclear derivative order                   I                2
External E-field                           R   N=          35
  0.00000000E+00  0.00000000E+00  0.00000000E+00  0.00000000E+00  0.00000000E+00
  0.00000000E+00  0.00000000E+00  0.00000000E+00  0.00000000E+00  0.00000000E+00
  0.00000000E+00  0.00000000E+00  0.00000000E+00  0.00000000E+00  0.00000000E+00
  0.00000000E+00  0.00000000E+00  0.00000000E+00  0.00000000E+00  0.00000000E+00
  0.00000000E+00  0.00000000E+00  0.00000000E+00  0.00000000E+00  0.00000000E+00
  0.00000000E+00  0.00000000E+00  0.00000000E+00  0.00000000E+00  0.00000000E+00
  0.00000000E+00  0.00000000E+00  0.00000000E+00  0.00000000E+00  0.00000000E+00
IOpCl                                      I                0
IROHF                                      I                0
Alpha Orbital Energies                     R   N=         207
 -2.07197237E+01 -2.06873213E+01 -2.06684599E+01 -1.58260237E+01 -1.64420249E+00
 -1.50470057E+00 -1.29279434E+00 -9.60027329E-01 -8.34467950E-01 -7.58860800E-01
 -7.39885323E-01 -6.36144351E-01 -6.18588302E-01 -6.18265746E-01 -5.04762986E-01
 -4.97284692E-01  3.50266075E-02  6.02256212E-02  9.51492454E-02  1.00364280E-01
  1.19758746E-01  1.22616334E-01  1.49227300E-01  1.52001078E-01  1.77618174E-01
  1.80362966E-01  1.89795481E-01  2.10942402E-01  2.16649993E-01  2.42716247E-01
  2.46367098E-01  2.69032635E-01  3.12017155E-01  3.16627192E-01  3.38145774E-01
  3.43875874E-01  3.46868235E-01  3.92604549E-01  4.48173909E-01  4.88236696E-01
  5.05041242E-01  5.18437985E-01  5.44684770E-01  5.61168424E-01  5.98879452E-01
  6.19849219E-01  6.38660046E-01  6.89596134E-01  7.17328581E-01  7.24064412E-01
  7.43132966E-01  7.63851995E-01  7.67326327E-01  7.95659443E-01  8.06438212E-01
  8.39318051E-01  8.43210579E-01  8.51776312E-01  8.85397221E-01  9.08095718E-01
  9.31249676E-01  9.47768006E-01  9.53943625E-01  1.01826805E+00  1.03196986E+00
  1.06327189E+00  1.06569003E+00  1.09492272E+00  1.14415702E+00  1.15601596E+00
  1.16958927E+00  1.22282686E+00  1.22736321E+00  1.24607172E+00  1.35296145E+00
  1.35984892E+00  1.37174151E+00  1.46868249E+00  1.48328803E+00  1.50490652E+00
  1.54116553E+00  1.59597752E+00  1.59734789E+00  1.60571431E+00  1.62900186E+00
  1.69593685E+00  1.74030465E+00  1.80073135E+00  1.82972502E+00  1.88831717E+00
  1.89564345E+00  1.92985875E+00  1.97936168E+00  1.98726641E+00  2.05177244E+00
  2.12367839E+00  2.12951293E+00  2.16471052E+00  2.18767267E+00  2.24373485E+00
  2.26010672E+00  2.29416349E+00  2.35240115E+00  2.36725996E+00  2.38557945E+00
  2.40210980E+00  2.43396938E+00  2.47022853E+00  2.47884900E+00  2.52961444E+00
  2.53760223E+00  2.54995114E+00  2.55849554E+00  2.61588759E+00  2.63086845E+00
  2.67291233E+00  2.67435397E+00  2.75517172E+00  2.80971768E+00  2.81860726E+00
  2.83976378E+00  2.91880471E+00  2.98554973E+00  3.04782860E+00  3.05111380E+00
  3.11539393E+00  3.11809425E+00  3.17308606E+00  3.21382366E+00  3.30913470E+00
  3.33134406E+00  3.36039205E+00  3.47697673E+00  3.67827821E+00  3.86916246E+00
  3.92537660E+00  4.18044863E+00  4.22184392E+00  4.22459408E+00  4.26812052E+00
  4.36946408E+00  4.49976107E+00  4.52680710E+00  4.55559509E+00  4.59656190E+00
  4.69435340E+00  4.80469152E+00  4.89802375E+00  4.91408350E+00  4.93618552E+00
  4.99770762E+00  5.00527978E+00  5.10638598E+00  5.12921395E+00  5.17297126E+00
  5.24780308E+00  5.24817563E+00  5.31568661E+00  5.34714471E+00  5.35128767E+00
  5.54680150E+00  5.64490138E+00  5.70592729E+00  5.88896859E+00  5.99663235E+00
  6.26471660E+00  6.29789510E+00  6.36172110E+00  6.37625387E+00  6.59748251E+00
  6.65899550E+00  6.66024610E+00  6.68960087E+00  6.72655125E+00  6.79704042E+00
  6.80430209E+00  6.85087742E+00  6.96810651E+00  7.01614900E+00  7.06626867E+00
  7.07540585E+00  7.13756893E+00  7.17506205E+00  7.17615960E+00  7.19804166E+00
  7.24489310E+00  7.24556860E+00  7.27174601E+00  7.34924430E+00  7.39390221E+00
  7.42532564E+00  7.44223289E+00  7.46158624E+00  7.55917185E+00  7.66337071E+00
  7.66755540E+00  7.79029193E+00  7.88113314E+00  7.95259274E+00  8.06589030E+00
  8.30289174E+00  8.49531205E+00  8.65032378E+00  1.36173224E+01  1.47284664E+01
  1.50627945E+01  1.57674998E+01
Alpha MO coefficients                      R   N=       42849
  6.36112543E-05 -2.20033580E-05 -1.09156635E-03  1.30486993E-05 -5.16737641E-05
  4.21558618E-05  0.00000000E+00 -8.33808237E-05 -2.91936793E-04  0.00000000E+00
  2.14311045E-07 -3.51213290E-04  0.00000000E+00  4.21281529E-05  0.00000000E+00
  0.00000000E+00 -2.37655435E-05  1.16124503E-05  2.26049110E-04  0.00000000E+00
  0.00000000E+00 -3.36677544E-05 -2.02195962E-04  3.08794993E-03 -9.50902384E-05
 -9.89127863E-05  3.54327541E-03  2.47105754E-03  1.02637746E-04 -5.31379037E-05
  0.00000000E+00 -7.30070407E-04  2.83719534E-04  0.00000000E+00 -1.99124649E-03
  1.11315334E-03  0.00000000E+00 -5.37341235E-04  4.16353192E-05  0.00000000E+00
  2.02309062E-05  0.00000000E+00  0.00000000E+00 -8.90451283E-06  4.39322341E-05
 -4.43052374E-04  0.00000000E+00  0.00000000E+00  4.26515040E-04 -6.59769847E-04
 -3.63041469E-04  0.00000000E+00  0.00000000E+00  5.45273500E-04 -7.37099117E-04
  0.00000000E+00  7.39857886E-05 -5.20700259E-05  0.00000000E+00  0.00000000E+00
 -2.74398085E-05  1.08321682E-04  0.00000000E+00  2.07902603E-04 -5.16910847E-05
  0.00000000E+00  0.00000000E+00 -1.67861997E-04  2.99968477E-04  9.76903990E-01
 -9.17382854E-03  4.34064320E-02  4.95766398E-04 -2.20938807E-03  4.48040569E-04
 -2.14767933E-03  0.00000000E+00 -3.17752924E-04  2.25333677E-03  0.00000000E+00
 -2.32049815E-03 -4.86479669E-04  0.00000000E+00 -2.24177226E-04  9.64006121E-05
  0.00000000E+00  7.03926293E-06  0.00000000E+00  0.00000000E+00 -4.74637124E-06
  3.78698375E-05  8.26774846E-04  0.00000000E+00  0.00000000E+00 -4.74430129E-04
 -1.72862727E-04 -1.39767468E-04  0.00000000E+00  0.00000000E+00 -5.52153851E-04
  3.56643997E-04  0.00000000E+00 -6.61019233E-06 -7.93980850E-05  0.00000000E+00
  0.00000000E+00 -9.06047875E-06  4.80229574E-05  0.00000000E+00  9.26243398E-05
  1.19530441E-06  0.00000000E+00  0.00000000E+00 -3.37130972E-04  3.79602819E-04
  1.04360278E-04  4.57458411E-04 -3.23661177E-04 -8.44257080E-04  3.53302225E-04
 -4.42777985E-05 -1.00046861E-04  0.00000000E+00  6.97754803E-04  1.11113610E-03
  0.00000000E+00 -7.70337241E-04 -6.52567416E-04  0.00000000E+00  1.96264749E-04
  2.12824321E-04  0.00000000E+00 -5.25167183E-05  0.00000000E+00  0.00000000E+00
  1.91162146E-05  9.33021880E-05 -4.15733512E-04  0.00000000E+00  0.00000000E+00
  4.07414868E-05  1.08131079E-03  2.73924928E-05  0.00000000E+00  0.00000000E+00
 -3.17816167E-04  3.01145601E-05  0.00000000E+00 -7.86722678E-05 -1.13604445E-04
  0.00000000E+00  0.00000000E+00 -9.64707759E-05  1.06337000E-04  0.00000000E+00
 -1.24363023E-04  4.67212914E-05  0.00000000E+00  0.00000000E+00  1.46306575E-05
  5.21204038E-04 -7.09036756E-04  4.59551065E-05 -7.05098159E-05  2.16257763E-04
 -1.80210008E-04 -2.91059122E-05 -4.14550508E-05  0.00000000E+00  1.69793975E-04
  2.53444614E-04  0.00000000E+00  5.22585102E-04  3.28312582E-04  0.00000000E+00
 -2.20428885E-04 -6.25044258E-05  0.00000000E+00 -1.29588244E-05  0.00000000E+00
  0.00000000E+00  3.39412109E-06  1.52146916E-05 -2.17262323E-06  0.00000000E+00
  0.00000000E+00 -1.64457661E-04  1.02840718E-05 -2.11515316E-05  0.00000000E+00
  0.00000000E+00 -1.73880641E-04 -4.45613194E-05  0.00000000E+00 -5.97435577E-06
 -9.09361125E-06  0.00000000E+00  0.00000000E+00 -2.13778848E-05  9.50345234E-06
  0.00000000E+00  4.03953994E-05  6.08377033E-05  0.00000000E+00  0.00000000E+00
  1.56610935E-04 -1.04054164E-04  3.96003736E-05  6.20976754E-05 -1.05667943E-04
 -2.96606512E-05  1.92226598E-05  1.21118198E-05  0.00000000E+00  2.38256070E-04
  5.64931653E-05  0.00000000E+00  1.25187124E-04  2.38787412E-05  0.00000000E+00
  1.28892188E-05  0.00000000E+00  0.00000000E+00 -1.18211579E-05  1.71093248E-05
  2.06460856E-05  0.00000000E+00  0.00000000E+00 -9.29723851E-05  6.61620972E-05
 -2.62568555E-04  2.74831807E-05 -1.53154401E-05 -5.46209642E-04  1.54013008E-04
  7.37940220E-06  1.36645921E-05  0.00000000E+00 -4.20595832E-07 -4.28356241E-05
  0.00000000E+00  1.77514086E-04  1.34548035E-04  0.00000000E+00 -4.53651990E-05
  5.09154125E-05  0.00000000E+00 -1.51870936E-06  0.00000000E+00  0.00000000E+00
 -8.42551722E-06 -1.16259656E-05  2.16109639E-05  0.00000000E+00  0.00000000E+00
  5.02343182E-05  1.08537005E-04  6.22461820E-05  0.00000000E+00  0.00000000E+00
 -2.75341236E-05 -7.64705374E-05  0.00000000E+00  7.70348499E-06  1.02187896E-05
  0.00000000E+00  0.00000000E+00 -1.07456255E-06 -2.50121797E-05  0.00000000E+00
 -1.38552583E-05 -3.66918784E-05  0.00000000E+00  0.00000000E+00 -2.36071611E-06
 -1.96261665E-05  7.37148035E-04  2.29648013E-05 -1.89122624E-05  2.98990010E-04
 -3.92027303E-04  1.65195833E-05  2.72842716E-05  0.00000000E+00 -6.59680973E-05
 -1.53738570E-04  0.00000000E+00  1.47039887E-04 -2.04820283E-04  0.00000000E+00
 -1.57575752E-04  1.41846709E-04  0.00000000E+00 -4.07292188E-06  0.00000000E+00
  0.00000000E+00 -2.95412947E-05 -9.90431074E-06 -5.14722051E-05  0.00000000E+00
  0.00000000E+00  7.98730744E-05  1.22256832E-04 -6.48219416E-05  0.00000000E+00
  0.00000000E+00  4.12118164E-05  3.00963415E-05  0.00000000E+00  2.96491111E-06
  3.33969685E-06  0.00000000E+00  0.00000000E+00 -7.91438135E-06 -2.30615503E-06
  0.00000000E+00  4.09300147E-06 -2.50535914E-05  0.00000000E+00  0.00000000E+00
  9.61758063E-05 -1.54916351E-04  2.37031242E-04  1.35730955E-03 -1.46941508E-04
 -7.08179799E-04  9.03479572E-04  6.31672636E-05 -7.10600004E-05  0.00000000E+00
  5.71561434E-04 -2.08278200E-03  0.00000000E+00  1.05996106E-04  4.99682610E-04
  0.00000000E+00  1.85703231E-04 -3.07163844E-04  0.00000000E+00 -1.27824132E-04
  0.00000000E+00  0.00000000E+00 -2.04009653E-04 -1.58361381E-04 -4.59621773E-04
  0.00000000E+00  0.00000000E+00 -6.01535341E-04 -9.21246176E-04 -4.13909674E-05
  0.00000000E+00  0.00000000E+00  5.87429005E-05  1.17472994E-04  0.00000000E+00
  8.37265439E-06  3.68637230E-05  0.00000000E+00  0.00000000E+00 -2.43762840E-05
 -4.37216932E-06  0.00000000E+00 -1.35237672E-04  1.57989325E-04  0.00000000E+00
  0.00000000E+00 -3.15490407E-04 -3.43162643E-05  9.76645953E-01 -9.88567955E-03
  4.35754816E-02  3.69345714E-03 -8.93855769E-04 -4.46297515E-04  2.13166762E-03
  0.00000000E+00  5.11681437E-04 -2.50560826E-03  0.00000000E+00 -7.44136870E-05
  8.20114760E-04  0.00000000E+00  1.04721809E-04 -6.44696990E-05  0.00000000E+00
 -1.93719526E-04  0.00000000E+00  0.00000000E+00 -7.44783413E-05 -4.34539342E-05
  4.08934607E-04  0.00000000E+00  0.00000000E+00  8.59083526E-04  4.83095189E-04
 -2.05898048E-04  0.00000000E+00  0.00000000E+00 -1.42050314E-04 -3.73820333E-05
  0.00000000E+00 -4.85280316E-06  7.03216358E-05  0.00000000E+00  0.00000000E+00
 -2.88291276E-05  1.06021699E-05  0.00000000E+00 -8.88725224E-05  9.15961812E-05
  0.00000000E+00  0.00000000E+00 -1.66134038E-04  2.05276273E-04  3.61983322E-04
  2.10080775E-03  1.46229834E-03 -1.68030430E-05  5.40947896E-05  2.79510869E-04
  0.00000000E+00  3.93209384E-04  1.07793943E-03  0.00000000E+00 -1.23027639E-04
  2.63679005E-04  0.00000000E+00 -3.38549239E-05  0.00000000E+00  0.00000000E+00
  1.71140154E-05 -2.01195599E-05 -2.19227070E-04  0.00000000E+00  0.00000000E+00
 -3.50052901E-04  4.09229129E-04  9.76837016E-01 -9.19777106E-03  4.34609423E-02
  6.11170464E-05 -1.98808868E-03 -2.04438664E-03 -8.33559172E-04  0.00000000E+00
  2.08877584E-03  8.00350289E-04  0.00000000E+00 -4.10056979E-04  7.22032607E-04
  0.00000000E+00  2.33467986E-04 -2.91558480E-04  0.00000000E+00  3.29025819E-05
  0.00000000E+00  0.00000000E+00 -7.17466994E-05  6.15906633E-05  7.73628651E-04
  0.00000000E+00  0.00000000E+00 -1.94790553E-04  3.47908144E-04 -2.33264745E-04
  0.00000000E+00  0.00000000E+00  3.51128602E-04 -5.01434141E-06  0.00000000E+00
 -8.12822869E-05 -1.12820167E-06  0.00000000E+00  0.00000000E+00  1.34191354E-05