title                                                                   
Freq      RMP2-FC                                                     Aug-CC-pVTZ         
Number of atoms                            I                5
Info1-9                                    I   N=           9
          33          24           0           0           0         100
           6           2           1
Full Title                                 C   N=           1
title       
Route                                      C   N=           4
#p freq mp2/aug-cc-pvtz density=current         
Charge                                     I                0
Multiplicity                               I                1
Number of electrons                        I               32
Number of alpha electrons                  I               16
Number of beta electrons                   I               16
Number of basis functions                  I              207
Number of independent functions            I              207
Number of point charges in /Mol/           I                0
Number of translation vectors              I                0
Atomic numbers                             I   N=           5
           1           8           8           7           8
Nuclear charges                            R   N=           5
  1.00000000E+00  8.00000000E+00  8.00000000E+00  7.00000000E+00  8.00000000E+00
Current cartesian coordinates              R   N=          15
  2.07746599E+00 -1.10794149E+00  9.86076132E-32  2.45769662E+00  7.14916491E-01
  1.47911420E-31 -3.91009481E-17  1.72880474E+00  3.08148791E-32 -1.86330000E+00
 -9.86991281E-02 -9.86076132E-32 -1.08699237E+00 -2.21886681E+00 -1.23259516E-31
Number of symbols in /Mol/                 I                0
Force Field                                I                0
Atom Types                                 C   N=           5
                                                            
Int Atom Types                             I   N=           5
           0           0           0           0           0
MM charges                                 R   N=           5
  0.00000000E+00  0.00000000E+00  0.00000000E+00  0.00000000E+00  0.00000000E+00
Integer atomic weights                     I   N=           5
           1          16          16          14          16
Real atomic weights                        R   N=           5
  1.00782504E+00  1.59949146E+01  1.59949146E+01  1.40030740E+01  1.59949146E+01
Atom fragment info                         I   N=           5
           0           0           0           0           0
Atom residue num                           I   N=           5
           0           0           0           0           0
Nuclear spins                              I   N=           5
           1           0           0           2           0
Nuclear ZEff                               R   N=           5
 -1.00000000E+00 -5.60000000E+00 -5.60000000E+00 -4.55000000E+00 -5.60000000E+00
Nuclear ZNuc                               R   N=           5
  1.00000000E+00  8.00000000E+00  8.00000000E+00  7.00000000E+00  8.00000000E+00
Nuclear QMom                               R   N=           5
  0.00000000E+00  0.00000000E+00  0.00000000E+00  2.04400000E+00  0.00000000E+00
Nuclear GFac                               R   N=           5
  2.79284600E+00  0.00000000E+00  0.00000000E+00  4.03761000E-01  0.00000000E+00
MicOpt                                     I   N=           5
          -1          -1          -1          -1          -1
Number of residues                         I                0
Number of secondary structures             I                0
SymInf integers                            I   N=          26
           1           2           1           1           1           1
           1          -1           0           0           0           0
           0           0           0           0           0           0
           0           0           0           0           0           0
           0           0
RotTr to input orientation                 R   N=          12
 -9.78930149E-01  1.25254255E-16  2.04195405E-01  2.04195405E-01 -2.61268318E-17
  9.78930149E-01  1.27950145E-16  1.00000000E+00  0.00000000E+00  2.25993065E+00
  0.00000000E+00  6.60388315E-01
Number of contracted shells                I               65
Number of primitive shells                 I              119
Pure/Cartesian d shells                    I                0
Pure/Cartesian f shells                    I                0
Highest angular momentum                   I                3
Largest degree of contraction              I                7
Shell types                                I   N=          65
           0           0           0           0           1           1
           1          -2          -2           0           0           0
           0           0           1           1           1           1
          -2          -2          -2          -3          -3           0
           0           0           0           0           1           1
           1           1          -2          -2          -2          -3
          -3           0           0           0           0           0
           1           1           1           1          -2          -2
          -2          -3          -3           0           0           0
           0           0           1           1           1           1
          -2          -2          -2          -3          -3
Number of primitives per shell             I   N=          65
           3           1           1           1           1           1
           1           1           1           7           6           1
           1           1           3           1           1           1
           1           1           1           1           1           7
           6           1           1           1           3           1
           1           1           1           1           1           1
           1           7           6           1           1           1
           3           1           1           1           1           1
           1           1           1           7           6           1
           1           1           3           1           1           1
           1           1           1           1           1
Shell to atom map                          I   N=          65
           1           1           1           1           1           1
           1           1           1           2           2           2
           2           2           2           2           2           2
           2           2           2           2           2           3
           3           3           3           3           3           3
           3           3           3           3           3           3
           3           4           4           4           4           4
           4           4           4           4           4           4
           4           4           4           5           5           5
           5           5           5           5           5           5
           5           5           5           5           5
Primitive exponents                        R   N=         119
  3.38700000E+01  5.09500000E+00  1.15900000E+00  3.25800000E-01  1.02700000E-01
  2.52600000E-02  1.40700000E+00  3.88000000E-01  1.02000000E-01  1.05700000E+00
  2.47000000E-01  1.53300000E+04  2.29900000E+03  5.22400000E+02  1.47300000E+02
  4.75500000E+01  1.67600000E+01  6.20700000E+00  5.22400000E+02  1.47300000E+02
  4.75500000E+01  1.67600000E+01  6.20700000E+00  6.88200000E-01  1.75200000E+00
  2.38400000E-01  7.37600000E-02  3.44600000E+01  7.74900000E+00  2.28000000E+00
  7.15600000E-01  2.14000000E-01  5.97400000E-02  2.31400000E+00  6.45000000E-01
  2.14000000E-01  1.42800000E+00  5.00000000E-01  1.53300000E+04  2.29900000E+03
  5.22400000E+02  1.47300000E+02  4.75500000E+01  1.67600000E+01  6.20700000E+00
  5.22400000E+02  1.47300000E+02  4.75500000E+01  1.67600000E+01  6.20700000E+00
  6.88200000E-01  1.75200000E+00  2.38400000E-01  7.37600000E-02  3.44600000E+01
  7.74900000E+00  2.28000000E+00  7.15600000E-01  2.14000000E-01  5.97400000E-02
  2.31400000E+00  6.45000000E-01  2.14000000E-01  1.42800000E+00  5.00000000E-01
  1.14200000E+04  1.71200000E+03  3.89300000E+02  1.10000000E+02  3.55700000E+01
  1.25400000E+01  4.64400000E+00  3.89300000E+02  1.10000000E+02  3.55700000E+01
  1.25400000E+01  4.64400000E+00  5.11800000E-01  1.29300000E+00  1.78700000E-01
  5.76000000E-02  2.66300000E+01  5.94800000E+00  1.74200000E+00  5.55000000E-01
  1.72500000E-01  4.91000000E-02  1.65400000E+00  4.69000000E-01  1.51000000E-01
  1.09300000E+00  3.64000000E-01  1.53300000E+04  2.29900000E+03  5.22400000E+02
  1.47300000E+02  4.75500000E+01  1.67600000E+01  6.20700000E+00  5.22400000E+02
  1.47300000E+02  4.75500000E+01  1.67600000E+01  6.20700000E+00  6.88200000E-01
  1.75200000E+00  2.38400000E-01  7.37600000E-02  3.44600000E+01  7.74900000E+00
  2.28000000E+00  7.15600000E-01  2.14000000E-01  5.97400000E-02  2.31400000E+00
  6.45000000E-01  2.14000000E-01  1.42800000E+00  5.00000000E-01
Contraction coefficients                   R   N=         119
  2.54948632E-02  1.90362766E-01  8.52162022E-01  1.00000000E+00  1.00000000E+00
  1.00000000E+00  1.00000000E+00  1.00000000E+00  1.00000000E+00  1.00000000E+00
  1.00000000E+00  5.19808943E-04  4.02025621E-03  2.07128267E-02  8.10105536E-02
  2.35962985E-01  4.42653446E-01  3.57064423E-01 -4.42115008E-05 -1.22591041E-03
 -1.05517725E-02 -6.74452633E-02 -1.71198607E-01  1.07329856E+00  1.00000000E+00
  1.00000000E+00  1.00000000E+00  4.11634896E-02  2.57762836E-01  8.02419274E-01
  1.00000000E+00  1.00000000E+00  1.00000000E+00  1.00000000E+00  1.00000000E+00
  1.00000000E+00  1.00000000E+00  1.00000000E+00  5.19808943E-04  4.02025621E-03
  2.07128267E-02  8.10105536E-02  2.35962985E-01  4.42653446E-01  3.57064423E-01
 -4.42115008E-05 -1.22591041E-03 -1.05517725E-02 -6.74452633E-02 -1.71198607E-01
  1.07329856E+00  1.00000000E+00  1.00000000E+00  1.00000000E+00  4.11634896E-02
  2.57762836E-01  8.02419274E-01  1.00000000E+00  1.00000000E+00  1.00000000E+00
  1.00000000E+00  1.00000000E+00  1.00000000E+00  1.00000000E+00  1.00000000E+00
  5.34563860E-04  4.13435660E-03  2.12335358E-02  8.25006224E-02  2.38138871E-01
  4.42551547E-01  3.53757422E-01 -4.89867350E-05 -1.19527323E-03 -1.03490714E-02
 -6.48680190E-02 -1.71552477E-01  1.07289568E+00  1.00000000E+00  1.00000000E+00
  1.00000000E+00  3.98072123E-02  2.49002660E-01  8.10479727E-01  1.00000000E+00
  1.00000000E+00  1.00000000E+00  1.00000000E+00  1.00000000E+00  1.00000000E+00
  1.00000000E+00  1.00000000E+00  5.19808943E-04  4.02025621E-03  2.07128267E-02
  8.10105536E-02  2.35962985E-01  4.42653446E-01  3.57064423E-01 -4.42115008E-05
 -1.22591041E-03 -1.05517725E-02 -6.74452633E-02 -1.71198607E-01  1.07329856E+00
  1.00000000E+00  1.00000000E+00  1.00000000E+00  4.11634896E-02  2.57762836E-01
  8.02419274E-01  1.00000000E+00  1.00000000E+00  1.00000000E+00  1.00000000E+00
  1.00000000E+00  1.00000000E+00  1.00000000E+00  1.00000000E+00
Coordinates of each shell                  R   N=         195
  2.07746599E+00 -1.10794149E+00  7.68657835E-32  2.07746599E+00 -1.10794149E+00
  7.68657835E-32  2.07746599E+00 -1.10794149E+00  7.68657835E-32  2.07746599E+00
 -1.10794149E+00  7.68657835E-32  2.07746599E+00 -1.10794149E+00  7.68657835E-32
  2.07746599E+00 -1.10794149E+00  7.68657835E-32  2.07746599E+00 -1.10794149E+00
  7.68657835E-32  2.07746599E+00 -1.10794149E+00  7.68657835E-32  2.07746599E+00
 -1.10794149E+00  7.68657835E-32  2.45769662E+00  7.14916491E-01  1.00821519E-31
  2.45769662E+00  7.14916491E-01  1.00821519E-31  2.45769662E+00  7.14916491E-01
  1.00821519E-31  2.45769662E+00  7.14916491E-01  1.00821519E-31  2.45769662E+00
  7.14916491E-01  1.00821519E-31  2.45769662E+00  7.14916491E-01  1.00821519E-31
  2.45769662E+00  7.14916491E-01  1.00821519E-31  2.45769662E+00  7.14916491E-01
  1.00821519E-31  2.45769662E+00  7.14916491E-01  1.00821519E-31  2.45769662E+00
  7.14916491E-01  1.00821519E-31  2.45769662E+00  7.14916491E-01  1.00821519E-31
  2.45769662E+00  7.14916491E-01  1.00821519E-31  2.45769662E+00  7.14916491E-01
  1.00821519E-31  2.45769662E+00  7.14916491E-01  1.00821519E-31 -1.07975252E-17
  1.72880474E+00  8.43841174E-33 -1.07975252E-17  1.72880474E+00  8.43841174E-33
 -1.07975252E-17  1.72880474E+00  8.43841174E-33 -1.07975252E-17  1.72880474E+00
  8.43841174E-33 -1.07975252E-17  1.72880474E+00  8.43841174E-33 -1.07975252E-17
  1.72880474E+00  8.43841174E-33 -1.07975252E-17  1.72880474E+00  8.43841174E-33
 -1.07975252E-17  1.72880474E+00  8.43841174E-33 -1.07975252E-17  1.72880474E+00
  8.43841174E-33 -1.07975252E-17  1.72880474E+00  8.43841174E-33 -1.07975252E-17
  1.72880474E+00  8.43841174E-33 -1.07975252E-17  1.72880474E+00  8.43841174E-33
 -1.07975252E-17  1.72880474E+00  8.43841174E-33 -1.07975252E-17  1.72880474E+00
  8.43841174E-33 -1.86330000E+00 -9.86991281E-02 -7.42738784E-32 -1.86330000E+00
 -9.86991281E-02 -7.42738784E-32 -1.86330000E+00 -9.86991281E-02 -7.42738784E-32
 -1.86330000E+00 -9.86991281E-02 -7.42738784E-32 -1.86330000E+00 -9.86991281E-02
 -7.42738784E-32 -1.86330000E+00 -9.86991281E-02 -7.42738784E-32 -1.86330000E+00
 -9.86991281E-02 -7.42738784E-32 -1.86330000E+00 -9.86991281E-02 -7.42738784E-32
 -1.86330000E+00 -9.86991281E-02 -7.42738784E-32 -1.86330000E+00 -9.86991281E-02
 -7.42738784E-32 -1.86330000E+00 -9.86991281E-02 -7.42738784E-32 -1.86330000E+00
 -9.86991281E-02 -7.42738784E-32 -1.86330000E+00 -9.86991281E-02 -7.42738784E-32
 -1.86330000E+00 -9.86991281E-02 -7.42738784E-32 -1.08699237E+00 -2.21886681E+00
 -5.38785097E-32 -1.08699237E+00 -2.21886681E+00 -5.38785097E-32 -1.08699237E+00
 -2.21886681E+00 -5.38785097E-32 -1.08699237E+00 -2.21886681E+00 -5.38785097E-32
 -1.08699237E+00 -2.21886681E+00 -5.38785097E-32 -1.08699237E+00 -2.21886681E+00
 -5.38785097E-32 -1.08699237E+00 -2.21886681E+00 -5.38785097E-32 -1.08699237E+00
 -2.21886681E+00 -5.38785097E-32 -1.08699237E+00 -2.21886681E+00 -5.38785097E-32
 -1.08699237E+00 -2.21886681E+00 -5.38785097E-32 -1.08699237E+00 -2.21886681E+00
 -5.38785097E-32 -1.08699237E+00 -2.21886681E+00 -5.38785097E-32 -1.08699237E+00
 -2.21886681E+00 -5.38785097E-32 -1.08699237E+00 -2.21886681E+00 -5.38785097E-32
Num ILSW                                   I              100
ILSW                                       I   N=         100
           0           0           0           0           2           0
           0           0           0           0           0          -1
           5           0           0           0           2           0
           0           0           0           0           1           0
           1           0           0           0           0           0
           0           0      100000           0          -1           0
           0           0           0           0           0           0
           0           0           0           1           1           0
           0 -2000000000           1           0           0           0
           0           0           4          52           0           0
           0           0           0           0           0           0
           0           0           0           5           4           1
           0           0           0           0           0           0
           0           0           0           0           0           0
           0           0           0           0           0           0
           0           0           0           0           0           0
           0           0           0           0
Num RLSW                                   I               52
RLSW                                       R   N=          52
  1.00000000E+00  1.00000000E+00  1.00000000E+00  1.00000000E+00  1.00000000E+00
  0.00000000E+00  0.00000000E+00  1.00000000E+00  0.00000000E+00  0.00000000E+00
  0.00000000E+00  0.00000000E+00  1.00000000E+00  0.00000000E+00  0.00000000E+00
  0.00000000E+00  0.00000000E+00  1.00000000E+00  0.00000000E+00  0.00000000E+00
  0.00000000E+00  0.00000000E+00  1.00000000E+00  0.00000000E+00  0.00000000E+00
  0.00000000E+00  0.00000000E+00  1.00000000E+00  0.00000000E+00  0.00000000E+00
  0.00000000E+00  0.00000000E+00  1.00000000E+00  0.00000000E+00  0.00000000E+00
  0.00000000E+00  0.00000000E+00  0.00000000E+00  1.00000000E+00  1.00000000E+00
  0.00000000E+00  1.00000000E+00  0.00000000E+00  0.00000000E+00  0.00000000E+00
  0.00000000E+00  0.00000000E+00  0.00000000E+00  0.00000000E+00  0.00000000E+00
  0.00000000E+00  0.00000000E+00
MxBond                                     I                2
NBond                                      I   N=           5
           1           2           2           2           1
IBond                                      I   N=          10
           2           0           1           3           2           4
           3           5           4           0
RBond                                      R   N=          10
  1.00000000E+00  0.00000000E+00  1.00000000E+00  1.00000000E+00  1.00000000E+00
  1.00000000E+00  1.00000000E+00  2.00000000E+00  2.00000000E+00  0.00000000E+00
Virial Ratio                               R      2.002097117269515E+00
SCF Energy                                 R     -2.795073936305265E+02
MP2 Energy                                 R     -2.804550455979590E+02
Total Energy                               R     -2.804550455979590E+02
Post-SCF wavefunction norm                 R      1.582776157426820E+00
RMS Force                                  R      3.451240931294837E-03
RMS Density                                R      4.083788770646442E-09
NImag                                      I                0
Job Status                                 I                1
Nuclear derivative order                   I                2
External E-field                           R   N=          35
  0.00000000E+00  0.00000000E+00  0.00000000E+00  0.00000000E+00  0.00000000E+00
  0.00000000E+00  0.00000000E+00  0.00000000E+00  0.00000000E+00  0.00000000E+00
  0.00000000E+00  0.00000000E+00  0.00000000E+00  0.00000000E+00  0.00000000E+00
  0.00000000E+00  0.00000000E+00  0.00000000E+00  0.00000000E+00  0.00000000E+00
  0.00000000E+00  0.00000000E+00  0.00000000E+00  0.00000000E+00  0.00000000E+00
  0.00000000E+00  0.00000000E+00  0.00000000E+00  0.00000000E+00  0.00000000E+00
  0.00000000E+00  0.00000000E+00  0.00000000E+00  0.00000000E+00  0.00000000E+00
IOpCl                                      I                0
IROHF                                      I                0
Alpha Orbital Energies                     R   N=         207
 -2.07199316E+01 -2.06875570E+01 -2.06664072E+01 -1.58257269E+01 -1.64771098E+00
 -1.51197899E+00 -1.29121464E+00 -9.61490315E-01 -8.38350914E-01 -7.60385138E-01
 -7.42884308E-01 -6.34585323E-01 -6.23332007E-01 -6.20445601E-01 -5.05407547E-01
 -4.94069358E-01  3.52887021E-02  6.01628838E-02  9.51407044E-02  1.00567170E-01
  1.19567690E-01  1.22993649E-01  1.49740961E-01  1.53951455E-01  1.77468027E-01
  1.80052088E-01  1.89653438E-01  2.11105132E-01  2.16903899E-01  2.46375116E-01
  2.52084624E-01  2.68819289E-01  3.14021197E-01  3.17261111E-01  3.38360770E-01
  3.44589914E-01  3.48680231E-01  3.92290172E-01  4.49484491E-01  4.90007877E-01
  5.05452875E-01  5.18775698E-01  5.44345941E-01  5.61139559E-01  5.99264763E-01
  6.20857567E-01  6.39136097E-01  6.90195528E-01  7.16870887E-01  7.23629482E-01
  7.45191798E-01  7.64640819E-01  7.69196902E-01  7.94430158E-01  8.06748110E-01
  8.38609164E-01  8.43439083E-01  8.51366449E-01  8.86098620E-01  9.09740694E-01
  9.33354603E-01  9.48161567E-01  9.53248342E-01  1.01921092E+00  1.03403556E+00
  1.06582545E+00  1.06694644E+00  1.09760364E+00  1.14599980E+00  1.15754357E+00
  1.16934303E+00  1.22355102E+00  1.22736084E+00  1.24721782E+00  1.35715569E+00
  1.35897503E+00  1.37218985E+00  1.46754984E+00  1.48418846E+00  1.50416149E+00
  1.54334710E+00  1.59774500E+00  1.59823424E+00  1.60600259E+00  1.63072094E+00
  1.69662486E+00  1.74363242E+00  1.80128629E+00  1.82991871E+00  1.88861802E+00
  1.90162857E+00  1.93167979E+00  1.98250864E+00  1.99035799E+00  2.05244977E+00
  2.12568053E+00  2.13141998E+00  2.16838651E+00  2.18849633E+00  2.24359044E+00
  2.26816078E+00  2.29765051E+00  2.35661530E+00  2.36782012E+00  2.38729559E+00
  2.40132964E+00  2.44388846E+00  2.47128952E+00  2.48292968E+00  2.53004113E+00
  2.53927011E+00  2.55348734E+00  2.56007590E+00  2.61782309E+00  2.63622412E+00
  2.67873771E+00  2.67900357E+00  2.76483956E+00  2.81525957E+00  2.81964519E+00
  2.84536113E+00  2.92379102E+00  2.98796843E+00  3.05182943E+00  3.05542096E+00
  3.11775207E+00  3.12179188E+00  3.18279752E+00  3.22408741E+00  3.31700392E+00
  3.33757118E+00  3.36494914E+00  3.49838562E+00  3.67821751E+00  3.87206106E+00
  3.93816052E+00  4.19017657E+00  4.22759289E+00  4.22983612E+00  4.27317274E+00
  4.37213448E+00  4.51773187E+00  4.53829301E+00  4.56427520E+00  4.60580376E+00
  4.69093519E+00  4.81467609E+00  4.90083819E+00  4.91593671E+00  4.94392395E+00
  4.99926041E+00  5.00510930E+00  5.10815297E+00  5.13748786E+00  5.17891402E+00
  5.25189087E+00  5.25849545E+00  5.32172621E+00  5.35077494E+00  5.37049904E+00
  5.54425255E+00  5.64524304E+00  5.71106676E+00  5.91607400E+00  6.00751604E+00
  6.23198361E+00  6.29929868E+00  6.36792640E+00  6.37646548E+00  6.59113261E+00
  6.64598005E+00  6.66250432E+00  6.68980067E+00  6.72337146E+00  6.79671992E+00
  6.81078698E+00  6.84764297E+00  6.97128369E+00  7.03502143E+00  7.07531772E+00
  7.08944249E+00  7.14800486E+00  7.18411402E+00  7.18628595E+00  7.22488561E+00
  7.25375395E+00  7.26292715E+00  7.27528074E+00  7.35555561E+00  7.40473352E+00
  7.44276875E+00  7.44355760E+00  7.47568427E+00  7.56459796E+00  7.67740651E+00
  7.67949876E+00  7.81142306E+00  7.90454800E+00  7.96194979E+00  8.08191042E+00
  8.34012698E+00  8.51248021E+00  8.67466722E+00  1.36982697E+01  1.47989822E+01
  1.51368224E+01  1.57956554E+01
Alpha MO coefficients                      R   N=       42849
  6.44556614E-05 -1.39536113E-05 -1.12237727E-03  1.86119143E-05 -4.51309843E-05
  3.79692840E-05  0.00000000E+00 -5.81332681E-05 -2.73304660E-04  0.00000000E+00
  3.11865673E-05 -3.30239166E-04  0.00000000E+00  4.09096615E-05  0.00000000E+00
  0.00000000E+00 -2.59183074E-05  2.28591014E-05  2.31365095E-04  0.00000000E+00
  0.00000000E+00 -4.73684677E-05 -2.17906591E-04  3.14173572E-03 -5.24269340E-05
 -1.14414760E-04  3.79099785E-03  2.59035851E-03  1.08615903E-04 -5.52247801E-05
  0.00000000E+00 -8.24100326E-04  3.34789409E-04  0.00000000E+00 -2.13157968E-03
  1.15770830E-03  0.00000000E+00 -5.67854019E-04  5.18150586E-05  0.00000000E+00
  1.41883068E-05  0.00000000E+00  0.00000000E+00 -2.33305423E-06  3.32919188E-05
 -4.63023242E-04  0.00000000E+00  0.00000000E+00  4.69530637E-04 -6.72121587E-04
 -3.77924087E-04  0.00000000E+00  0.00000000E+00  5.76841323E-04 -7.37570467E-04
  0.00000000E+00  7.71551655E-05 -5.39940621E-05  0.00000000E+00  0.00000000E+00
 -3.05339001E-05  1.11258797E-04  0.00000000E+00  2.09623532E-04 -4.34689829E-05
  0.00000000E+00  0.00000000E+00 -1.71769094E-04  2.82809897E-04  9.76889481E-01
 -9.17806700E-03  4.34411794E-02  2.30631547E-04 -2.31223581E-03  5.12060185E-04
 -2.16542493E-03  0.00000000E+00 -4.10358218E-04  2.27854499E-03  0.00000000E+00
 -2.46289786E-03 -4.42515813E-04  0.00000000E+00 -2.51453313E-04  1.00774968E-04
  0.00000000E+00  2.06298372E-06  0.00000000E+00  0.00000000E+00  4.83091598E-07
  3.12132950E-05  8.50760925E-04  0.00000000E+00  0.00000000E+00 -5.06706036E-04
 -1.43432730E-04 -1.19992937E-04  0.00000000E+00  0.00000000E+00 -5.79094450E-04
  3.75133313E-04  0.00000000E+00 -2.12660845E-06 -8.04070330E-05  0.00000000E+00
  0.00000000E+00 -1.16322311E-05  5.13929055E-05  0.00000000E+00  1.01759321E-04
 -3.47005983E-06  0.00000000E+00  0.00000000E+00 -3.44169798E-04  3.92497509E-04
  1.04359768E-04  4.58475045E-04 -3.21010041E-04 -8.42556287E-04  3.14660578E-04
 -4.22773704E-05 -9.97420731E-05  0.00000000E+00  6.87757978E-04  1.11601090E-03
  0.00000000E+00 -7.76414315E-04 -6.83032599E-04  0.00000000E+00  1.85340303E-04
  2.06116881E-04  0.00000000E+00 -5.22598153E-05  0.00000000E+00  0.00000000E+00
  1.81371525E-05  9.41022093E-05 -4.13413140E-04  0.00000000E+00  0.00000000E+00
  1.99004154E-05  1.07319794E-03  2.74038442E-05  0.00000000E+00  0.00000000E+00
 -3.21184979E-04  1.39759059E-05  0.00000000E+00 -7.66400068E-05 -1.13472658E-04
  0.00000000E+00  0.00000000E+00 -9.90485411E-05  1.02681834E-04  0.00000000E+00
 -1.24492949E-04  4.85443423E-05  0.00000000E+00  0.00000000E+00  2.70153401E-06
  5.15428815E-04 -7.09135774E-04  3.85151953E-05 -7.06018411E-05  2.22223074E-04
 -1.42301593E-04 -2.87283812E-05 -4.15670028E-05  0.00000000E+00  1.67119429E-04
  2.51305553E-04  0.00000000E+00  5.45974090E-04  3.33263618E-04  0.00000000E+00
 -2.07693105E-04 -5.55648890E-05  0.00000000E+00 -1.26807453E-05  0.00000000E+00
  0.00000000E+00  2.96846489E-06  1.50491153E-05 -3.36749049E-06  0.00000000E+00
  0.00000000E+00 -1.61473854E-04  8.86827685E-06 -2.56228362E-05  0.00000000E+00
  0.00000000E+00 -1.66686802E-04 -4.03987317E-05  0.00000000E+00 -5.72773022E-06
 -9.04991778E-06  0.00000000E+00  0.00000000E+00 -2.10169148E-05  9.21970130E-06
  0.00000000E+00  3.88483188E-05  6.01035482E-05  0.00000000E+00  0.00000000E+00
  1.57984674E-04 -9.96369468E-05  3.83901736E-05  7.17910742E-05 -9.73644098E-05
 -3.11386654E-05  2.26839643E-05  1.32603077E-05  0.00000000E+00  2.38372628E-04
  6.39056825E-05  0.00000000E+00  1.16650888E-04  2.40301873E-05  0.00000000E+00
  1.11121584E-05  0.00000000E+00  0.00000000E+00 -1.04229647E-05  1.81432683E-05
  1.79370997E-05  0.00000000E+00  0.00000000E+00 -9.54348487E-05  6.65150297E-05
 -2.34957303E-04  2.46502486E-05 -1.38995745E-05 -5.92742027E-04  1.51294027E-04
  7.47012142E-06  1.37450927E-05  0.00000000E+00  1.29858747E-06 -4.45012050E-05
  0.00000000E+00  2.01922901E-04  1.48427704E-04  0.00000000E+00 -4.15489550E-05
  4.88803196E-05  0.00000000E+00 -1.72236931E-06  0.00000000E+00  0.00000000E+00
 -8.29312134E-06 -1.15036048E-05  2.35513477E-05  0.00000000E+00  0.00000000E+00
  5.12688085E-05  1.12596343E-04  6.47480516E-05  0.00000000E+00  0.00000000E+00
 -3.38961962E-05 -8.60683919E-05  0.00000000E+00  7.76316735E-06  1.03373412E-05
  0.00000000E+00  0.00000000E+00 -8.62572780E-07 -2.64364923E-05  0.00000000E+00
 -1.33055347E-05 -3.88982838E-05  0.00000000E+00  0.00000000E+00 -1.19903933E-06
 -1.88572110E-05  7.35555531E-04  2.07381194E-05 -1.99908896E-05  3.29403145E-04
 -3.94356973E-04  1.61095573E-05  2.74803860E-05  0.00000000E+00 -6.39108027E-05
 -1.55267699E-04  0.00000000E+00  1.69563309E-04 -2.31417425E-04  0.00000000E+00
 -1.56296171E-04  1.41760550E-04  0.00000000E+00 -3.90730850E-06  0.00000000E+00
  0.00000000E+00 -2.98714789E-05 -1.06740872E-05 -5.37030599E-05  0.00000000E+00
  0.00000000E+00  8.18264993E-05  1.24962035E-04 -6.77215502E-05  0.00000000E+00
  0.00000000E+00  3.16874754E-05  2.23268006E-05  0.00000000E+00  2.79454239E-06
  3.20226856E-06  0.00000000E+00  0.00000000E+00 -7.36357384E-06 -2.68919775E-06
  0.00000000E+00  3.68402148E-06 -2.43176892E-05  0.00000000E+00  0.00000000E+00
  1.02037423E-04 -1.54113461E-04  2.36717785E-04  1.35576279E-03 -1.46113313E-04
 -7.08621731E-04  9.13809516E-04  6.37278199E-05 -7.04393672E-05  0.00000000E+00
  5.80747545E-04 -2.08473228E-03  0.00000000E+00  9.77777088E-05  5.15230465E-04
  0.00000000E+00  1.89112991E-04 -3.05895863E-04  0.00000000E+00 -1.27709681E-04
  0.00000000E+00  0.00000000E+00 -2.02643908E-04 -1.60582060E-04 -4.59707049E-04
  0.00000000E+00  0.00000000E+00 -5.91571428E-04 -9.32907927E-04 -4.19716485E-05
  0.00000000E+00  0.00000000E+00  5.43668798E-05  1.22397344E-04  0.00000000E+00
  8.23535656E-06  3.72589598E-05  0.00000000E+00  0.00000000E+00 -2.44879612E-05
 -4.76348841E-06  0.00000000E+00 -1.37291411E-04  1.56317142E-04  0.00000000E+00
  0.00000000E+00 -3.15176922E-04 -4.42994873E-05  9.76645713E-01 -9.88597914E-03
  4.35759397E-02  3.69957547E-03 -9.01964195E-04 -4.53844209E-04  2.13234918E-03
  0.00000000E+00  5.22243002E-04 -2.50699249E-03  0.00000000E+00 -7.98446607E-05
  8.24131507E-04  0.00000000E+00  1.04438405E-04 -6.48656406E-05  0.00000000E+00
 -1.93335886E-04  0.00000000E+00  0.00000000E+00 -7.42997152E-05 -4.46734116E-05
  4.09653749E-04  0.00000000E+00  0.00000000E+00  8.56320114E-04  4.91955139E-04
 -2.04343032E-04  0.00000000E+00  0.00000000E+00 -1.44757547E-04 -3.48131948E-05
  0.00000000E+00 -5.33249698E-06  7.03837913E-05  0.00000000E+00  0.00000000E+00
 -2.83416764E-05  1.03546125E-05  0.00000000E+00 -8.93763835E-05  9.11125408E-05
  0.00000000E+00  0.00000000E+00 -1.72121545E-04  2.03692593E-04  3.69360162E-04
  1.95866772E-03  1.43565194E-03 -2.63073467E-05  4.88569256E-05  2.60377410E-04
  0.00000000E+00  3.78216460E-04  1.00054101E-03  0.00000000E+00 -1.56020826E-04
  2.26342183E-04  0.00000000E+00 -2.19003781E-05  0.00000000E+00  0.00000000E+00
  4.01947669E-05 -2.96655868E-05 -2.19173030E-04  0.00000000E+00  0.00000000E+00
 -3.46026946E-04  4.14828476E-04  9.76816988E-01 -9.19058104E-03  4.35048481E-02
 -5.09874062E-05 -2.06230571E-03 -2.08387537E-03 -8.17046686E-04  0.00000000E+00
  2.14844526E-03  7.31737725E-04  0.00000000E+00 -2.81812143E-04  6.14725732E-04
  0.00000000E+00  2.55062327E-04 -3.18829057E-04  0.00000000E+00  2.46410697E-05
  0.00000000E+00  0.00000000E+00 -6.71428051E-05  5.75447659E-05  7.87662502E-04
  0.00000000E+00  0.00000000E+00 -2.60171971E-04  3.85578639E-04 -2.21415788E-04
  0.00000000E+00  0.00000000E+00  3.01591330E-04  2.25495914E-05  0.00000000E+00
 -8.41102764E-05  5.01952252E-06  0.00000000E+00  0.00000000E+00  1.97958323E-05