title                                                                   
Freq      RMP2-FC                                                     Aug-CC-pVTZ         
Number of atoms                            I                5
Info1-9                                    I   N=           9
          33          24           0           0           0         100
           6           2           1
Full Title                                 C   N=           1
title       
Route                                      C   N=           4
#p freq mp2/aug-cc-pvtz density=current         
Charge                                     I                0
Multiplicity                               I                1
Number of electrons                        I               32
Number of alpha electrons                  I               16
Number of beta electrons                   I               16
Number of basis functions                  I              207
Number of independent functions            I              207
Number of point charges in /Mol/           I                0
Number of translation vectors              I                0
Atomic numbers                             I   N=           5
           1           8           8           7           8
Nuclear charges                            R   N=           5
  1.00000000E+00  8.00000000E+00  8.00000000E+00  7.00000000E+00  8.00000000E+00
Current cartesian coordinates              R   N=          15
  2.10634857E+00 -1.12027794E+00  0.00000000E+00  2.49028808E+00  7.01802461E-01
  0.00000000E+00  1.98018272E-16  1.73507130E+00  0.00000000E+00 -1.86701526E+00
 -8.86368202E-02  0.00000000E+00 -1.11994329E+00 -2.21928180E+00  0.00000000E+00
Number of symbols in /Mol/                 I                0
Force Field                                I                0
Atom Types                                 C   N=           5
                                                            
Int Atom Types                             I   N=           5
           0           0           0           0           0
MM charges                                 R   N=           5
  0.00000000E+00  0.00000000E+00  0.00000000E+00  0.00000000E+00  0.00000000E+00
Integer atomic weights                     I   N=           5
           1          16          16          14          16
Real atomic weights                        R   N=           5
  1.00782504E+00  1.59949146E+01  1.59949146E+01  1.40030740E+01  1.59949146E+01
Atom fragment info                         I   N=           5
           0           0           0           0           0
Atom residue num                           I   N=           5
           0           0           0           0           0
Nuclear spins                              I   N=           5
           1           0           0           2           0
Nuclear ZEff                               R   N=           5
 -1.00000000E+00 -5.60000000E+00 -5.60000000E+00 -4.55000000E+00 -5.60000000E+00
Nuclear ZNuc                               R   N=           5
  1.00000000E+00  8.00000000E+00  8.00000000E+00  7.00000000E+00  8.00000000E+00
Nuclear QMom                               R   N=           5
  0.00000000E+00  0.00000000E+00  0.00000000E+00  2.04400000E+00  0.00000000E+00
Nuclear GFac                               R   N=           5
  2.79284600E+00  0.00000000E+00  0.00000000E+00  4.03761000E-01  0.00000000E+00
MicOpt                                     I   N=           5
          -1          -1          -1          -1          -1
Number of residues                         I                0
Number of secondary structures             I                0
SymInf integers                            I   N=          26
           1           2           1           1           1           1
           1          -1           0           0           0           0
           0           0           0           0           0           0
           0           0           0           0           0           0
           0           0
RotTr to input orientation                 R   N=          12
 -9.78512567E-01  0.00000000E+00  2.06187187E-01  2.06187187E-01  0.00000000E+00
  9.78512567E-01  0.00000000E+00  1.00000000E+00  0.00000000E+00  2.29207550E+00
  0.00000000E+00  6.61903957E-01
Number of contracted shells                I               65
Number of primitive shells                 I              119
Pure/Cartesian d shells                    I                0
Pure/Cartesian f shells                    I                0
Highest angular momentum                   I                3
Largest degree of contraction              I                7
Shell types                                I   N=          65
           0           0           0           0           1           1
           1          -2          -2           0           0           0
           0           0           1           1           1           1
          -2          -2          -2          -3          -3           0
           0           0           0           0           1           1
           1           1          -2          -2          -2          -3
          -3           0           0           0           0           0
           1           1           1           1          -2          -2
          -2          -3          -3           0           0           0
           0           0           1           1           1           1
          -2          -2          -2          -3          -3
Number of primitives per shell             I   N=          65
           3           1           1           1           1           1
           1           1           1           7           6           1
           1           1           3           1           1           1
           1           1           1           1           1           7
           6           1           1           1           3           1
           1           1           1           1           1           1
           1           7           6           1           1           1
           3           1           1           1           1           1
           1           1           1           7           6           1
           1           1           3           1           1           1
           1           1           1           1           1
Shell to atom map                          I   N=          65
           1           1           1           1           1           1
           1           1           1           2           2           2
           2           2           2           2           2           2
           2           2           2           2           2           3
           3           3           3           3           3           3
           3           3           3           3           3           3
           3           4           4           4           4           4
           4           4           4           4           4           4
           4           4           4           5           5           5
           5           5           5           5           5           5
           5           5           5           5           5
Primitive exponents                        R   N=         119
  3.38700000E+01  5.09500000E+00  1.15900000E+00  3.25800000E-01  1.02700000E-01
  2.52600000E-02  1.40700000E+00  3.88000000E-01  1.02000000E-01  1.05700000E+00
  2.47000000E-01  1.53300000E+04  2.29900000E+03  5.22400000E+02  1.47300000E+02
  4.75500000E+01  1.67600000E+01  6.20700000E+00  5.22400000E+02  1.47300000E+02
  4.75500000E+01  1.67600000E+01  6.20700000E+00  6.88200000E-01  1.75200000E+00
  2.38400000E-01  7.37600000E-02  3.44600000E+01  7.74900000E+00  2.28000000E+00
  7.15600000E-01  2.14000000E-01  5.97400000E-02  2.31400000E+00  6.45000000E-01
  2.14000000E-01  1.42800000E+00  5.00000000E-01  1.53300000E+04  2.29900000E+03
  5.22400000E+02  1.47300000E+02  4.75500000E+01  1.67600000E+01  6.20700000E+00
  5.22400000E+02  1.47300000E+02  4.75500000E+01  1.67600000E+01  6.20700000E+00
  6.88200000E-01  1.75200000E+00  2.38400000E-01  7.37600000E-02  3.44600000E+01
  7.74900000E+00  2.28000000E+00  7.15600000E-01  2.14000000E-01  5.97400000E-02
  2.31400000E+00  6.45000000E-01  2.14000000E-01  1.42800000E+00  5.00000000E-01
  1.14200000E+04  1.71200000E+03  3.89300000E+02  1.10000000E+02  3.55700000E+01
  1.25400000E+01  4.64400000E+00  3.89300000E+02  1.10000000E+02  3.55700000E+01
  1.25400000E+01  4.64400000E+00  5.11800000E-01  1.29300000E+00  1.78700000E-01
  5.76000000E-02  2.66300000E+01  5.94800000E+00  1.74200000E+00  5.55000000E-01
  1.72500000E-01  4.91000000E-02  1.65400000E+00  4.69000000E-01  1.51000000E-01
  1.09300000E+00  3.64000000E-01  1.53300000E+04  2.29900000E+03  5.22400000E+02
  1.47300000E+02  4.75500000E+01  1.67600000E+01  6.20700000E+00  5.22400000E+02
  1.47300000E+02  4.75500000E+01  1.67600000E+01  6.20700000E+00  6.88200000E-01
  1.75200000E+00  2.38400000E-01  7.37600000E-02  3.44600000E+01  7.74900000E+00
  2.28000000E+00  7.15600000E-01  2.14000000E-01  5.97400000E-02  2.31400000E+00
  6.45000000E-01  2.14000000E-01  1.42800000E+00  5.00000000E-01
Contraction coefficients                   R   N=         119
  2.54948632E-02  1.90362766E-01  8.52162022E-01  1.00000000E+00  1.00000000E+00
  1.00000000E+00  1.00000000E+00  1.00000000E+00  1.00000000E+00  1.00000000E+00
  1.00000000E+00  5.19808943E-04  4.02025621E-03  2.07128267E-02  8.10105536E-02
  2.35962985E-01  4.42653446E-01  3.57064423E-01 -4.42115008E-05 -1.22591041E-03
 -1.05517725E-02 -6.74452633E-02 -1.71198607E-01  1.07329856E+00  1.00000000E+00
  1.00000000E+00  1.00000000E+00  4.11634896E-02  2.57762836E-01  8.02419274E-01
  1.00000000E+00  1.00000000E+00  1.00000000E+00  1.00000000E+00  1.00000000E+00
  1.00000000E+00  1.00000000E+00  1.00000000E+00  5.19808943E-04  4.02025621E-03
  2.07128267E-02  8.10105536E-02  2.35962985E-01  4.42653446E-01  3.57064423E-01
 -4.42115008E-05 -1.22591041E-03 -1.05517725E-02 -6.74452633E-02 -1.71198607E-01
  1.07329856E+00  1.00000000E+00  1.00000000E+00  1.00000000E+00  4.11634896E-02
  2.57762836E-01  8.02419274E-01  1.00000000E+00  1.00000000E+00  1.00000000E+00
  1.00000000E+00  1.00000000E+00  1.00000000E+00  1.00000000E+00  1.00000000E+00
  5.34563860E-04  4.13435660E-03  2.12335358E-02  8.25006224E-02  2.38138871E-01
  4.42551547E-01  3.53757422E-01 -4.89867350E-05 -1.19527323E-03 -1.03490714E-02
 -6.48680190E-02 -1.71552477E-01  1.07289568E+00  1.00000000E+00  1.00000000E+00
  1.00000000E+00  3.98072123E-02  2.49002660E-01  8.10479727E-01  1.00000000E+00
  1.00000000E+00  1.00000000E+00  1.00000000E+00  1.00000000E+00  1.00000000E+00
  1.00000000E+00  1.00000000E+00  5.19808943E-04  4.02025621E-03  2.07128267E-02
  8.10105536E-02  2.35962985E-01  4.42653446E-01  3.57064423E-01 -4.42115008E-05
 -1.22591041E-03 -1.05517725E-02 -6.74452633E-02 -1.71198607E-01  1.07329856E+00
  1.00000000E+00  1.00000000E+00  1.00000000E+00  4.11634896E-02  2.57762836E-01
  8.02419274E-01  1.00000000E+00  1.00000000E+00  1.00000000E+00  1.00000000E+00
  1.00000000E+00  1.00000000E+00  1.00000000E+00  1.00000000E+00
Coordinates of each shell                  R   N=         195
  2.10634857E+00 -1.12027794E+00  0.00000000E+00  2.10634857E+00 -1.12027794E+00
  0.00000000E+00  2.10634857E+00 -1.12027794E+00  0.00000000E+00  2.10634857E+00
 -1.12027794E+00  0.00000000E+00  2.10634857E+00 -1.12027794E+00  0.00000000E+00
  2.10634857E+00 -1.12027794E+00  0.00000000E+00  2.10634857E+00 -1.12027794E+00
  0.00000000E+00  2.10634857E+00 -1.12027794E+00  0.00000000E+00  2.10634857E+00
 -1.12027794E+00  0.00000000E+00  2.49028808E+00  7.01802461E-01  0.00000000E+00
  2.49028808E+00  7.01802461E-01  0.00000000E+00  2.49028808E+00  7.01802461E-01
  0.00000000E+00  2.49028808E+00  7.01802461E-01  0.00000000E+00  2.49028808E+00
  7.01802461E-01  0.00000000E+00  2.49028808E+00  7.01802461E-01  0.00000000E+00
  2.49028808E+00  7.01802461E-01  0.00000000E+00  2.49028808E+00  7.01802461E-01
  0.00000000E+00  2.49028808E+00  7.01802461E-01  0.00000000E+00  2.49028808E+00
  7.01802461E-01  0.00000000E+00  2.49028808E+00  7.01802461E-01  0.00000000E+00
  2.49028808E+00  7.01802461E-01  0.00000000E+00  2.49028808E+00  7.01802461E-01
  0.00000000E+00  2.49028808E+00  7.01802461E-01  0.00000000E+00 -7.48448682E-17
  1.73507130E+00  0.00000000E+00 -7.48448682E-17  1.73507130E+00  0.00000000E+00
 -7.48448682E-17  1.73507130E+00  0.00000000E+00 -7.48448682E-17  1.73507130E+00
  0.00000000E+00 -7.48448682E-17  1.73507130E+00  0.00000000E+00 -7.48448682E-17
  1.73507130E+00  0.00000000E+00 -7.48448682E-17  1.73507130E+00  0.00000000E+00
 -7.48448682E-17  1.73507130E+00  0.00000000E+00 -7.48448682E-17  1.73507130E+00
  0.00000000E+00 -7.48448682E-17  1.73507130E+00  0.00000000E+00 -7.48448682E-17
  1.73507130E+00  0.00000000E+00 -7.48448682E-17  1.73507130E+00  0.00000000E+00
 -7.48448682E-17  1.73507130E+00  0.00000000E+00 -7.48448682E-17  1.73507130E+00
  0.00000000E+00 -1.86701526E+00 -8.86368202E-02  0.00000000E+00 -1.86701526E+00
 -8.86368202E-02  0.00000000E+00 -1.86701526E+00 -8.86368202E-02  0.00000000E+00
 -1.86701526E+00 -8.86368202E-02  0.00000000E+00 -1.86701526E+00 -8.86368202E-02
  0.00000000E+00 -1.86701526E+00 -8.86368202E-02  0.00000000E+00 -1.86701526E+00
 -8.86368202E-02  0.00000000E+00 -1.86701526E+00 -8.86368202E-02  0.00000000E+00
 -1.86701526E+00 -8.86368202E-02  0.00000000E+00 -1.86701526E+00 -8.86368202E-02
  0.00000000E+00 -1.86701526E+00 -8.86368202E-02  0.00000000E+00 -1.86701526E+00
 -8.86368202E-02  0.00000000E+00 -1.86701526E+00 -8.86368202E-02  0.00000000E+00
 -1.86701526E+00 -8.86368202E-02  0.00000000E+00 -1.11994329E+00 -2.21928180E+00
  0.00000000E+00 -1.11994329E+00 -2.21928180E+00  0.00000000E+00 -1.11994329E+00
 -2.21928180E+00  0.00000000E+00 -1.11994329E+00 -2.21928180E+00  0.00000000E+00
 -1.11994329E+00 -2.21928180E+00  0.00000000E+00 -1.11994329E+00 -2.21928180E+00
  0.00000000E+00 -1.11994329E+00 -2.21928180E+00  0.00000000E+00 -1.11994329E+00
 -2.21928180E+00  0.00000000E+00 -1.11994329E+00 -2.21928180E+00  0.00000000E+00
 -1.11994329E+00 -2.21928180E+00  0.00000000E+00 -1.11994329E+00 -2.21928180E+00
  0.00000000E+00 -1.11994329E+00 -2.21928180E+00  0.00000000E+00 -1.11994329E+00
 -2.21928180E+00  0.00000000E+00 -1.11994329E+00 -2.21928180E+00  0.00000000E+00
Num ILSW                                   I              100
ILSW                                       I   N=         100
           0           0           0           0           2           0
           0           0           0           0           0          -1
           5           0           0           0           2           0
           0           0           0           0           1           0
           1           0           0           0           0           0
           0           0      100000           0          -1           0
           0           0           0           0           0           0
           0           0           0           1           1           0
           0 -2000000000           1           0           0           0
           0           0           4          52           0           0
           0           0           0           0           0           0
           0           0           0           5           4           1
           0           0           0           0           0           0
           0           0           0           0           0           0
           0           0           0           0           0           0
           0           0           0           0           0           0
           0           0           0           0
Num RLSW                                   I               52
RLSW                                       R   N=          52
  1.00000000E+00  1.00000000E+00  1.00000000E+00  1.00000000E+00  1.00000000E+00
  0.00000000E+00  0.00000000E+00  1.00000000E+00  0.00000000E+00  0.00000000E+00
  0.00000000E+00  0.00000000E+00  1.00000000E+00  0.00000000E+00  0.00000000E+00
  0.00000000E+00  0.00000000E+00  1.00000000E+00  0.00000000E+00  0.00000000E+00
  0.00000000E+00  0.00000000E+00  1.00000000E+00  0.00000000E+00  0.00000000E+00
  0.00000000E+00  0.00000000E+00  1.00000000E+00  0.00000000E+00  0.00000000E+00
  0.00000000E+00  0.00000000E+00  1.00000000E+00  0.00000000E+00  0.00000000E+00
  0.00000000E+00  0.00000000E+00  0.00000000E+00  1.00000000E+00  1.00000000E+00
  0.00000000E+00  1.00000000E+00  0.00000000E+00  0.00000000E+00  0.00000000E+00
  0.00000000E+00  0.00000000E+00  0.00000000E+00  0.00000000E+00  0.00000000E+00
  0.00000000E+00  0.00000000E+00
MxBond                                     I                2
NBond                                      I   N=           5
           1           2           2           2           1
IBond                                      I   N=          10
           2           0           1           3           2           4
           3           5           4           0
RBond                                      R   N=          10
  1.00000000E+00  0.00000000E+00  1.00000000E+00  1.00000000E+00  1.00000000E+00
  1.00000000E+00  1.00000000E+00  2.00000000E+00  2.00000000E+00  0.00000000E+00
Virial Ratio                               R      2.002246507971174E+00
SCF Energy                                 R     -2.795064071579466E+02
MP2 Energy                                 R     -2.804551935159877E+02
Total Energy                               R     -2.804551935159877E+02
Post-SCF wavefunction norm                 R      1.583772205358399E+00
RMS Force                                  R      1.536986637240591E-03
RMS Density                                R      4.355993106218938E-09
NImag                                      I                0
Job Status                                 I                1
Nuclear derivative order                   I                2
External E-field                           R   N=          35
  0.00000000E+00  0.00000000E+00  0.00000000E+00  0.00000000E+00  0.00000000E+00
  0.00000000E+00  0.00000000E+00  0.00000000E+00  0.00000000E+00  0.00000000E+00
  0.00000000E+00  0.00000000E+00  0.00000000E+00  0.00000000E+00  0.00000000E+00
  0.00000000E+00  0.00000000E+00  0.00000000E+00  0.00000000E+00  0.00000000E+00
  0.00000000E+00  0.00000000E+00  0.00000000E+00  0.00000000E+00  0.00000000E+00
  0.00000000E+00  0.00000000E+00  0.00000000E+00  0.00000000E+00  0.00000000E+00
  0.00000000E+00  0.00000000E+00  0.00000000E+00  0.00000000E+00  0.00000000E+00
IOpCl                                      I                0
IROHF                                      I                0
Alpha Orbital Energies                     R   N=         207
 -2.07204905E+01 -2.06875869E+01 -2.06687157E+01 -1.58255910E+01 -1.64345684E+00
 -1.50608348E+00 -1.29406873E+00 -9.60566242E-01 -8.33837999E-01 -7.58788411E-01
 -7.39861267E-01 -6.38311023E-01 -6.19360763E-01 -6.18822978E-01 -5.03523717E-01
 -4.97886309E-01  3.50084188E-02  6.06355910E-02  9.51120273E-02  1.00483177E-01
  1.19734108E-01  1.22646465E-01  1.49103807E-01  1.51932441E-01  1.77629849E-01
  1.80357210E-01  1.89647941E-01  2.11067349E-01  2.16724611E-01  2.42580161E-01
  2.46352252E-01  2.68576582E-01  3.11887422E-01  3.16024258E-01  3.38110997E-01
  3.43291903E-01  3.46383615E-01  3.92630774E-01  4.47809275E-01  4.88623084E-01
  5.04745550E-01  5.18778350E-01  5.44435492E-01  5.61783144E-01  5.99187120E-01
  6.20603173E-01  6.39234281E-01  6.89379639E-01  7.17246718E-01  7.23986410E-01
  7.40899632E-01  7.64471816E-01  7.67440945E-01  7.95676553E-01  8.05444762E-01
  8.40031768E-01  8.43153783E-01  8.51213694E-01  8.84980109E-01  9.07173620E-01
  9.28746460E-01  9.48481243E-01  9.54412283E-01  1.01809380E+00  1.03188771E+00
  1.05849109E+00  1.06549198E+00  1.09396155E+00  1.14314681E+00  1.15591975E+00
  1.17093043E+00  1.22139733E+00  1.22693171E+00  1.24606601E+00  1.35190157E+00
  1.36300634E+00  1.37080024E+00  1.46896178E+00  1.48433485E+00  1.50605448E+00
  1.54153041E+00  1.59317478E+00  1.59684665E+00  1.60531475E+00  1.62856686E+00
  1.69571547E+00  1.74040383E+00  1.80130796E+00  1.82892270E+00  1.88770511E+00
  1.89647925E+00  1.92802079E+00  1.97981977E+00  1.99034832E+00  2.05036780E+00
  2.12220542E+00  2.13022193E+00  2.16477437E+00  2.18675456E+00  2.24261711E+00
  2.25961898E+00  2.29450113E+00  2.35203608E+00  2.36370391E+00  2.38653251E+00
  2.40200857E+00  2.43371326E+00  2.46987398E+00  2.47902600E+00  2.52771247E+00
  2.53784239E+00  2.54725518E+00  2.55750313E+00  2.61365501E+00  2.62860125E+00
  2.67151181E+00  2.67157988E+00  2.75562571E+00  2.80907309E+00  2.81348353E+00
  2.84163171E+00  2.91784478E+00  2.98002053E+00  3.04822568E+00  3.05293222E+00
  3.11659848E+00  3.11695872E+00  3.17259199E+00  3.21304954E+00  3.30699369E+00
  3.33363356E+00  3.36046362E+00  3.48017815E+00  3.67768276E+00  3.86908895E+00
  3.92712574E+00  4.18211862E+00  4.22003103E+00  4.22045081E+00  4.26672517E+00
  4.36708519E+00  4.50081631E+00  4.51804688E+00  4.55796057E+00  4.59965949E+00
  4.69268226E+00  4.80911772E+00  4.90181380E+00  4.91313123E+00  4.94270224E+00
  4.99692832E+00  5.00504422E+00  5.10785268E+00  5.13402177E+00  5.17779608E+00
  5.24898392E+00  5.25651187E+00  5.31685711E+00  5.34240624E+00  5.35379066E+00
  5.54442826E+00  5.64369603E+00  5.70318650E+00  5.88624485E+00  6.00028902E+00
  6.26436349E+00  6.29607806E+00  6.36002089E+00  6.37650137E+00  6.59850460E+00
  6.65321608E+00  6.65857892E+00  6.68646216E+00  6.72460070E+00  6.80333345E+00
  6.80592057E+00  6.84317945E+00  6.96907880E+00  7.01969074E+00  7.06622624E+00
  7.08023262E+00  7.14035865E+00  7.16831443E+00  7.17529508E+00  7.20300857E+00
  7.24506538E+00  7.24568728E+00  7.27026383E+00  7.34853362E+00  7.39532097E+00
  7.42513498E+00  7.44243694E+00  7.46236209E+00  7.55953122E+00  7.65889434E+00
  7.66359312E+00  7.79441379E+00  7.88288135E+00  7.95274611E+00  8.05916872E+00
  8.30529692E+00  8.50183851E+00  8.65235185E+00  1.36146639E+01  1.47618978E+01
  1.51023360E+01  1.57459779E+01
Alpha MO coefficients                      R   N=       42849
  6.51510251E-05 -4.03485195E-05 -1.11467466E-03  1.08266193E-05 -5.18864520E-05
  4.22016315E-05  0.00000000E+00 -8.53907402E-05 -2.96847568E-04  0.00000000E+00
  1.51449566E-06 -3.48315597E-04  0.00000000E+00  4.29171476E-05  0.00000000E+00
  0.00000000E+00 -2.51190352E-05  1.26479990E-05  2.26590786E-04  0.00000000E+00
  0.00000000E+00 -3.80852063E-05 -2.06519805E-04  3.05333777E-03 -9.54813912E-05
 -1.00845050E-04  3.57063481E-03  2.48344233E-03  1.03474713E-04 -5.26709837E-05
  0.00000000E+00 -7.33961056E-04  2.81278523E-04  0.00000000E+00 -1.99756902E-03
  1.09762825E-03  0.00000000E+00 -5.38085476E-04  3.88622583E-05  0.00000000E+00
  2.05429502E-05  0.00000000E+00  0.00000000E+00 -9.17182567E-06  4.41392391E-05
 -4.44772701E-04  0.00000000E+00  0.00000000E+00  4.32978334E-04 -6.58947499E-04
 -3.65344577E-04  0.00000000E+00  0.00000000E+00  5.50581187E-04 -7.36471632E-04
  0.00000000E+00  7.46281284E-05 -5.19909170E-05  0.00000000E+00  0.00000000E+00
 -2.84807516E-05  1.07657394E-04  0.00000000E+00  2.07585251E-04 -5.07538103E-05
  0.00000000E+00  0.00000000E+00 -1.73502260E-04  2.99329203E-04  9.76905723E-01
 -9.17203210E-03  4.34045252E-02  5.06433574E-04 -2.21177607E-03  4.60789351E-04
 -2.14607284E-03  0.00000000E+00 -3.30966666E-04  2.25200380E-03  0.00000000E+00
 -2.33318520E-03 -4.87657226E-04  0.00000000E+00 -2.24707400E-04  9.75346770E-05
  0.00000000E+00  7.52667833E-06  0.00000000E+00  0.00000000E+00 -4.57155268E-06
  3.77037695E-05  8.27774901E-04  0.00000000E+00  0.00000000E+00 -4.73658070E-04
 -1.75237654E-04 -1.34973350E-04  0.00000000E+00  0.00000000E+00 -5.49125434E-04
  3.55496133E-04  0.00000000E+00 -6.25054972E-06 -7.89641504E-05  0.00000000E+00
  0.00000000E+00 -9.33777065E-06  4.84354948E-05  0.00000000E+00  9.31507030E-05
 -3.84058155E-07  0.00000000E+00  0.00000000E+00 -3.42236582E-04  3.76994686E-04
  1.04366474E-04  4.58231941E-04 -3.23097872E-04 -8.25034792E-04  3.58406818E-04
 -4.30865440E-05 -1.00427382E-04  0.00000000E+00  6.94465265E-04  1.11521389E-03
  0.00000000E+00 -7.95917819E-04 -7.08875182E-04  0.00000000E+00  1.91705112E-04
  2.09891476E-04  0.00000000E+00 -5.24000075E-05  0.00000000E+00  0.00000000E+00
  1.96665293E-05  9.27994647E-05 -4.15364152E-04  0.00000000E+00  0.00000000E+00
  2.85578530E-05  1.08616647E-03  2.75111445E-05  0.00000000E+00  0.00000000E+00
 -3.32562019E-04  2.47733209E-05  0.00000000E+00 -7.80116473E-05 -1.14426870E-04
  0.00000000E+00  0.00000000E+00 -9.71673641E-05  1.05573817E-04  0.00000000E+00
 -1.21542722E-04  4.91028679E-05  0.00000000E+00  0.00000000E+00  1.30875678E-05
  5.26124200E-04 -6.93156560E-04  3.37355533E-05 -7.15919400E-05  1.81205976E-04
 -1.77113542E-04 -2.98307100E-05 -4.25581131E-05  0.00000000E+00  1.73563183E-04
  2.51630499E-04  0.00000000E+00  5.65122550E-04  3.35634197E-04  0.00000000E+00
 -2.10103477E-04 -6.30216020E-05  0.00000000E+00 -1.22682351E-05  0.00000000E+00
  0.00000000E+00  4.24269260E-06  1.35740626E-05 -6.50610251E-06  0.00000000E+00
  0.00000000E+00 -1.69444051E-04  2.24240136E-05 -2.94787211E-05  0.00000000E+00
  0.00000000E+00 -1.73264315E-04 -2.26500086E-05  0.00000000E+00 -6.29755103E-06
 -1.02709925E-05  0.00000000E+00  0.00000000E+00 -2.23957901E-05  8.63034128E-06
  0.00000000E+00  4.03371391E-05  5.90590709E-05  0.00000000E+00  0.00000000E+00
  1.50375702E-04 -1.04898715E-04  4.13260926E-05  6.27186134E-05 -1.28237801E-04
 -3.02334398E-05  1.52852628E-05  8.16727774E-06  0.00000000E+00  2.47270296E-04
  7.29995438E-05  0.00000000E+00  1.32099755E-04  2.93257944E-05  0.00000000E+00
  1.50751350E-05  0.00000000E+00  0.00000000E+00 -1.51438831E-05  1.41984692E-05
  2.46321353E-05  0.00000000E+00  0.00000000E+00 -1.05447851E-04  5.81611189E-05
 -2.53356934E-04  2.04471352E-05 -1.53640705E-05 -5.63674131E-04  1.60085533E-04
  7.51652457E-06  1.37352606E-05  0.00000000E+00  7.64339261E-07 -3.96356881E-05
  0.00000000E+00  1.87092562E-04  1.23313860E-04  0.00000000E+00 -4.79997729E-05
  4.71029549E-05  0.00000000E+00 -8.50332983E-07  0.00000000E+00  0.00000000E+00
 -8.63379891E-06 -1.25443383E-05  1.83876840E-05  0.00000000E+00  0.00000000E+00
  5.03323546E-05  1.09993283E-04  5.87798917E-05  0.00000000E+00  0.00000000E+00
 -2.82199785E-05 -7.51405697E-05  0.00000000E+00  7.89685944E-06  1.05173884E-05
  0.00000000E+00  0.00000000E+00 -1.26729309E-06 -2.35616657E-05  0.00000000E+00
 -1.27466457E-05 -3.34198946E-05  0.00000000E+00  0.00000000E+00 -3.33774794E-06
 -2.13813074E-05  7.19029326E-04  2.07919556E-05 -2.16069309E-05  3.06418153E-04
 -3.84918678E-04  1.71570659E-05  2.90763744E-05  0.00000000E+00 -6.82369322E-05
 -1.59382677E-04  0.00000000E+00  1.71876822E-04 -2.18061997E-04  0.00000000E+00
 -1.54788352E-04  1.42669073E-04  0.00000000E+00 -3.87265944E-06  0.00000000E+00
  0.00000000E+00 -2.81914720E-05 -1.05912351E-05 -5.43114643E-05  0.00000000E+00
  0.00000000E+00  7.04346377E-05  1.27823544E-04 -6.71875508E-05  0.00000000E+00
  0.00000000E+00  3.61515895E-05  2.43643451E-05  0.00000000E+00  3.59026122E-06
  4.71574946E-06  0.00000000E+00  0.00000000E+00 -6.73890576E-06 -1.34450591E-06
  0.00000000E+00  3.26804779E-06 -2.54755221E-05  0.00000000E+00  0.00000000E+00
  1.01400730E-04 -1.50394016E-04  2.37471802E-04  1.36162007E-03 -1.45855468E-04
 -6.82492085E-04  9.04826292E-04  6.35901580E-05 -7.03320112E-05  0.00000000E+00
  5.56161195E-04 -2.09780661E-03  0.00000000E+00  1.13137462E-04  5.13107788E-04
  0.00000000E+00  1.81482883E-04 -3.10876727E-04  0.00000000E+00 -1.28139123E-04
  0.00000000E+00  0.00000000E+00 -2.05679896E-04 -1.55455545E-04 -4.58839145E-04
  0.00000000E+00  0.00000000E+00 -6.22089355E-04 -9.18759685E-04 -4.16949864E-05
  0.00000000E+00  0.00000000E+00  5.52374531E-05  1.18329326E-04  0.00000000E+00
  9.07185920E-06  3.79045015E-05  0.00000000E+00  0.00000000E+00 -2.47347697E-05
 -3.80917355E-06  0.00000000E+00 -1.33126104E-04  1.56475796E-04  0.00000000E+00
  0.00000000E+00 -3.21175623E-04 -3.28853731E-05  9.76647854E-01 -9.88856105E-03
  4.35722825E-02  3.68857099E-03 -8.95814973E-04 -4.26708779E-04  2.13876954E-03
  0.00000000E+00  4.86774101E-04 -2.51639444E-03  0.00000000E+00 -5.91664170E-05
  8.07641289E-04  0.00000000E+00  1.06914895E-04 -6.52076885E-05  0.00000000E+00
 -1.93422650E-04  0.00000000E+00  0.00000000E+00 -7.51497829E-05 -4.35734858E-05
  4.09683573E-04  0.00000000E+00  0.00000000E+00  8.72262822E-04  4.69208219E-04
 -2.05341871E-04  0.00000000E+00  0.00000000E+00 -1.33576517E-04 -3.48460707E-05
  0.00000000E+00 -4.14974287E-06  7.05064474E-05  0.00000000E+00  0.00000000E+00
 -2.94570826E-05  1.11950898E-05  0.00000000E+00 -8.86337972E-05  9.26965676E-05
  0.00000000E+00  0.00000000E+00 -1.60829478E-04  2.11903013E-04  3.77567681E-04
  1.98491816E-03  1.35124695E-03 -2.05372126E-05  4.91688400E-05  2.68791161E-04
  0.00000000E+00  3.91911444E-04  1.03192653E-03  0.00000000E+00 -1.18585998E-04
  2.40502616E-04  0.00000000E+00 -2.30829816E-05  0.00000000E+00  0.00000000E+00
  3.18414762E-05 -2.81388174E-05 -2.15268368E-04  0.00000000E+00  0.00000000E+00
 -3.49073087E-04  4.01386862E-04  9.76834844E-01 -9.18671188E-03  4.34645199E-02
  1.49009430E-04 -1.91214292E-03 -2.04161071E-03 -8.44902117E-04  0.00000000E+00
  2.07763998E-03  7.80359825E-04  0.00000000E+00 -4.15852361E-04  6.52386429E-04
  0.00000000E+00  2.26046119E-04 -2.97722850E-04  0.00000000E+00  3.10418271E-05
  0.00000000E+00  0.00000000E+00 -7.42289900E-05  6.22845823E-05  7.65782182E-04
  0.00000000E+00  0.00000000E+00 -2.09484390E-04  3.52051242E-04 -2.36560520E-04
  0.00000000E+00  0.00000000E+00  3.39989172E-04  3.44195462E-06  0.00000000E+00
 -8.03927127E-05  1.63527187E-06  0.00000000E+00  0.00000000E+00  1.64953414E-05