title                                                                   
Freq      RMP2-FC                                                     Aug-CC-pVTZ         
Number of atoms                            I                5
Info1-9                                    I   N=           9
          33          24           0           0           0         100
           6           2           1
Full Title                                 C   N=           1
title       
Route                                      C   N=           4
#p freq mp2/aug-cc-pvtz density=current         
Charge                                     I                0
Multiplicity                               I                1
Number of electrons                        I               32
Number of alpha electrons                  I               16
Number of beta electrons                   I               16
Number of basis functions                  I              207
Number of independent functions            I              207
Number of point charges in /Mol/           I                0
Number of translation vectors              I                0
Atomic numbers                             I   N=           5
           1           8           8           7           8
Nuclear charges                            R   N=           5
  1.00000000E+00  8.00000000E+00  8.00000000E+00  7.00000000E+00  8.00000000E+00
Current cartesian coordinates              R   N=          15
  2.11605153E+00 -1.10342605E+00  9.86076132E-32  2.49378930E+00  7.19950137E-01
 -4.93038066E-32 -8.30573972E-17  1.74473994E+00 -1.23259516E-32 -1.88666756E+00
 -1.10750724E-01  4.93038066E-32 -1.10746162E+00 -2.22985493E+00  4.93038066E-32
Number of symbols in /Mol/                 I                0
Force Field                                I                0
Atom Types                                 C   N=           5
                                                            
Int Atom Types                             I   N=           5
           0           0           0           0           0
MM charges                                 R   N=           5
  0.00000000E+00  0.00000000E+00  0.00000000E+00  0.00000000E+00  0.00000000E+00
Integer atomic weights                     I   N=           5
           1          16          16          14          16
Real atomic weights                        R   N=           5
  1.00782504E+00  1.59949146E+01  1.59949146E+01  1.40030740E+01  1.59949146E+01
Atom fragment info                         I   N=           5
           0           0           0           0           0
Atom residue num                           I   N=           5
           0           0           0           0           0
Nuclear spins                              I   N=           5
           1           0           0           2           0
Nuclear ZEff                               R   N=           5
 -1.00000000E+00 -5.60000000E+00 -5.60000000E+00 -4.55000000E+00 -5.60000000E+00
Nuclear ZNuc                               R   N=           5
  1.00000000E+00  8.00000000E+00  8.00000000E+00  7.00000000E+00  8.00000000E+00
Nuclear QMom                               R   N=           5
  0.00000000E+00  0.00000000E+00  0.00000000E+00  2.04400000E+00  0.00000000E+00
Nuclear GFac                               R   N=           5
  2.79284600E+00  0.00000000E+00  0.00000000E+00  4.03761000E-01  0.00000000E+00
MicOpt                                     I   N=           5
          -1          -1          -1          -1          -1
Number of residues                         I                0
Number of secondary structures             I                0
SymInf integers                            I   N=          26
           1           2           1           1           1           1
           1          -1           0           0           0           0
           0           0           0           0           0           0
           0           0           0           0           0           0
           0           0
RotTr to input orientation                 R   N=          12
 -9.79208443E-01  1.22172879E-16  2.02856664E-01  2.02856664E-01 -2.53098131E-17
  9.79208443E-01  1.24766979E-16  1.00000000E+00  0.00000000E+00  2.29589285E+00
  0.00000000E+00  6.51228949E-01
Number of contracted shells                I               65
Number of primitive shells                 I              119
Pure/Cartesian d shells                    I                0
Pure/Cartesian f shells                    I                0
Highest angular momentum                   I                3
Largest degree of contraction              I                7
Shell types                                I   N=          65
           0           0           0           0           1           1
           1          -2          -2           0           0           0
           0           0           1           1           1           1
          -2          -2          -2          -3          -3           0
           0           0           0           0           1           1
           1           1          -2          -2          -2          -3
          -3           0           0           0           0           0
           1           1           1           1          -2          -2
          -2          -3          -3           0           0           0
           0           0           1           1           1           1
          -2          -2          -2          -3          -3
Number of primitives per shell             I   N=          65
           3           1           1           1           1           1
           1           1           1           7           6           1
           1           1           3           1           1           1
           1           1           1           1           1           7
           6           1           1           1           3           1
           1           1           1           1           1           1
           1           7           6           1           1           1
           3           1           1           1           1           1
           1           1           1           7           6           1
           1           1           3           1           1           1
           1           1           1           1           1
Shell to atom map                          I   N=          65
           1           1           1           1           1           1
           1           1           1           2           2           2
           2           2           2           2           2           2
           2           2           2           2           2           3
           3           3           3           3           3           3
           3           3           3           3           3           3
           3           4           4           4           4           4
           4           4           4           4           4           4
           4           4           4           5           5           5
           5           5           5           5           5           5
           5           5           5           5           5
Primitive exponents                        R   N=         119
  3.38700000E+01  5.09500000E+00  1.15900000E+00  3.25800000E-01  1.02700000E-01
  2.52600000E-02  1.40700000E+00  3.88000000E-01  1.02000000E-01  1.05700000E+00
  2.47000000E-01  1.53300000E+04  2.29900000E+03  5.22400000E+02  1.47300000E+02
  4.75500000E+01  1.67600000E+01  6.20700000E+00  5.22400000E+02  1.47300000E+02
  4.75500000E+01  1.67600000E+01  6.20700000E+00  6.88200000E-01  1.75200000E+00
  2.38400000E-01  7.37600000E-02  3.44600000E+01  7.74900000E+00  2.28000000E+00
  7.15600000E-01  2.14000000E-01  5.97400000E-02  2.31400000E+00  6.45000000E-01
  2.14000000E-01  1.42800000E+00  5.00000000E-01  1.53300000E+04  2.29900000E+03
  5.22400000E+02  1.47300000E+02  4.75500000E+01  1.67600000E+01  6.20700000E+00
  5.22400000E+02  1.47300000E+02  4.75500000E+01  1.67600000E+01  6.20700000E+00
  6.88200000E-01  1.75200000E+00  2.38400000E-01  7.37600000E-02  3.44600000E+01
  7.74900000E+00  2.28000000E+00  7.15600000E-01  2.14000000E-01  5.97400000E-02
  2.31400000E+00  6.45000000E-01  2.14000000E-01  1.42800000E+00  5.00000000E-01
  1.14200000E+04  1.71200000E+03  3.89300000E+02  1.10000000E+02  3.55700000E+01
  1.25400000E+01  4.64400000E+00  3.89300000E+02  1.10000000E+02  3.55700000E+01
  1.25400000E+01  4.64400000E+00  5.11800000E-01  1.29300000E+00  1.78700000E-01
  5.76000000E-02  2.66300000E+01  5.94800000E+00  1.74200000E+00  5.55000000E-01
  1.72500000E-01  4.91000000E-02  1.65400000E+00  4.69000000E-01  1.51000000E-01
  1.09300000E+00  3.64000000E-01  1.53300000E+04  2.29900000E+03  5.22400000E+02
  1.47300000E+02  4.75500000E+01  1.67600000E+01  6.20700000E+00  5.22400000E+02
  1.47300000E+02  4.75500000E+01  1.67600000E+01  6.20700000E+00  6.88200000E-01
  1.75200000E+00  2.38400000E-01  7.37600000E-02  3.44600000E+01  7.74900000E+00
  2.28000000E+00  7.15600000E-01  2.14000000E-01  5.97400000E-02  2.31400000E+00
  6.45000000E-01  2.14000000E-01  1.42800000E+00  5.00000000E-01
Contraction coefficients                   R   N=         119
  2.54948632E-02  1.90362766E-01  8.52162022E-01  1.00000000E+00  1.00000000E+00
  1.00000000E+00  1.00000000E+00  1.00000000E+00  1.00000000E+00  1.00000000E+00
  1.00000000E+00  5.19808943E-04  4.02025621E-03  2.07128267E-02  8.10105536E-02
  2.35962985E-01  4.42653446E-01  3.57064423E-01 -4.42115008E-05 -1.22591041E-03
 -1.05517725E-02 -6.74452633E-02 -1.71198607E-01  1.07329856E+00  1.00000000E+00
  1.00000000E+00  1.00000000E+00  4.11634896E-02  2.57762836E-01  8.02419274E-01
  1.00000000E+00  1.00000000E+00  1.00000000E+00  1.00000000E+00  1.00000000E+00
  1.00000000E+00  1.00000000E+00  1.00000000E+00  5.19808943E-04  4.02025621E-03
  2.07128267E-02  8.10105536E-02  2.35962985E-01  4.42653446E-01  3.57064423E-01
 -4.42115008E-05 -1.22591041E-03 -1.05517725E-02 -6.74452633E-02 -1.71198607E-01
  1.07329856E+00  1.00000000E+00  1.00000000E+00  1.00000000E+00  4.11634896E-02
  2.57762836E-01  8.02419274E-01  1.00000000E+00  1.00000000E+00  1.00000000E+00
  1.00000000E+00  1.00000000E+00  1.00000000E+00  1.00000000E+00  1.00000000E+00
  5.34563860E-04  4.13435660E-03  2.12335358E-02  8.25006224E-02  2.38138871E-01
  4.42551547E-01  3.53757422E-01 -4.89867350E-05 -1.19527323E-03 -1.03490714E-02
 -6.48680190E-02 -1.71552477E-01  1.07289568E+00  1.00000000E+00  1.00000000E+00
  1.00000000E+00  3.98072123E-02  2.49002660E-01  8.10479727E-01  1.00000000E+00
  1.00000000E+00  1.00000000E+00  1.00000000E+00  1.00000000E+00  1.00000000E+00
  1.00000000E+00  1.00000000E+00  5.19808943E-04  4.02025621E-03  2.07128267E-02
  8.10105536E-02  2.35962985E-01  4.42653446E-01  3.57064423E-01 -4.42115008E-05
 -1.22591041E-03 -1.05517725E-02 -6.74452633E-02 -1.71198607E-01  1.07329856E+00
  1.00000000E+00  1.00000000E+00  1.00000000E+00  4.11634896E-02  2.57762836E-01
  8.02419274E-01  1.00000000E+00  1.00000000E+00  1.00000000E+00  1.00000000E+00
  1.00000000E+00  1.00000000E+00  1.00000000E+00  1.00000000E+00
Coordinates of each shell                  R   N=         195
  2.11605153E+00 -1.10342605E+00  3.30689833E-32  2.11605153E+00 -1.10342605E+00
  3.30689833E-32  2.11605153E+00 -1.10342605E+00  3.30689833E-32  2.11605153E+00
 -1.10342605E+00  3.30689833E-32  2.11605153E+00 -1.10342605E+00  3.30689833E-32
  2.11605153E+00 -1.10342605E+00  3.30689833E-32  2.11605153E+00 -1.10342605E+00
  3.30689833E-32  2.11605153E+00 -1.10342605E+00  3.30689833E-32  2.11605153E+00
 -1.10342605E+00  3.30689833E-32  2.49378930E+00  7.19950137E-01  2.18513580E-32
  2.49378930E+00  7.19950137E-01  2.18513580E-32  2.49378930E+00  7.19950137E-01
  2.18513580E-32  2.49378930E+00  7.19950137E-01  2.18513580E-32  2.49378930E+00
  7.19950137E-01  2.18513580E-32  2.49378930E+00  7.19950137E-01  2.18513580E-32
  2.49378930E+00  7.19950137E-01  2.18513580E-32  2.49378930E+00  7.19950137E-01
  2.18513580E-32  2.49378930E+00  7.19950137E-01  2.18513580E-32  2.49378930E+00
  7.19950137E-01  2.18513580E-32  2.49378930E+00  7.19950137E-01  2.18513580E-32
  2.49378930E+00  7.19950137E-01  2.18513580E-32  2.49378930E+00  7.19950137E-01
  2.18513580E-32  2.49378930E+00  7.19950137E-01  2.18513580E-32 -1.34468099E-17
  1.74473994E+00 -1.47852283E-32 -1.34468099E-17  1.74473994E+00 -1.47852283E-32
 -1.34468099E-17  1.74473994E+00 -1.47852283E-32 -1.34468099E-17  1.74473994E+00
 -1.47852283E-32 -1.34468099E-17  1.74473994E+00 -1.47852283E-32 -1.34468099E-17
  1.74473994E+00 -1.47852283E-32 -1.34468099E-17  1.74473994E+00 -1.47852283E-32
 -1.34468099E-17  1.74473994E+00 -1.47852283E-32 -1.34468099E-17  1.74473994E+00
 -1.47852283E-32 -1.34468099E-17  1.74473994E+00 -1.47852283E-32 -1.34468099E-17
  1.74473994E+00 -1.47852283E-32 -1.34468099E-17  1.74473994E+00 -1.47852283E-32
 -1.34468099E-17  1.74473994E+00 -1.47852283E-32 -1.34468099E-17  1.74473994E+00
 -1.47852283E-32 -1.88666756E+00 -1.10750724E-01 -2.02087242E-32 -1.88666756E+00
 -1.10750724E-01 -2.02087242E-32 -1.88666756E+00 -1.10750724E-01 -2.02087242E-32
 -1.88666756E+00 -1.10750724E-01 -2.02087242E-32 -1.88666756E+00 -1.10750724E-01
 -2.02087242E-32 -1.88666756E+00 -1.10750724E-01 -2.02087242E-32 -1.88666756E+00
 -1.10750724E-01 -2.02087242E-32 -1.88666756E+00 -1.10750724E-01 -2.02087242E-32
 -1.88666756E+00 -1.10750724E-01 -2.02087242E-32 -1.88666756E+00 -1.10750724E-01
 -2.02087242E-32 -1.88666756E+00 -1.10750724E-01 -2.02087242E-32 -1.88666756E+00
 -1.10750724E-01 -2.02087242E-32 -1.88666756E+00 -1.10750724E-01 -2.02087242E-32
 -1.88666756E+00 -1.10750724E-01 -2.02087242E-32 -1.10746162E+00 -2.22985493E+00
  6.48288104E-33 -1.10746162E+00 -2.22985493E+00  6.48288104E-33 -1.10746162E+00
 -2.22985493E+00  6.48288104E-33 -1.10746162E+00 -2.22985493E+00  6.48288104E-33
 -1.10746162E+00 -2.22985493E+00  6.48288104E-33 -1.10746162E+00 -2.22985493E+00
  6.48288104E-33 -1.10746162E+00 -2.22985493E+00  6.48288104E-33 -1.10746162E+00
 -2.22985493E+00  6.48288104E-33 -1.10746162E+00 -2.22985493E+00  6.48288104E-33
 -1.10746162E+00 -2.22985493E+00  6.48288104E-33 -1.10746162E+00 -2.22985493E+00
  6.48288104E-33 -1.10746162E+00 -2.22985493E+00  6.48288104E-33 -1.10746162E+00
 -2.22985493E+00  6.48288104E-33 -1.10746162E+00 -2.22985493E+00  6.48288104E-33
Num ILSW                                   I              100
ILSW                                       I   N=         100
           0           0           0           0           2           0
           0           0           0           0           0          -1
           5           0           0           0           2           0
           0           0           0           0           1           0
           1           0           0           0           0           0
           0           0      100000           0          -1           0
           0           0           0           0           0           0
           0           0           0           1           1           0
           0 -2000000000           1           0           0           0
           0           0           4          52           0           0
           0           0           0           0           0           0
           0           0           0           5           4           1
           0           0           0           0           0           0
           0           0           0           0           0           0
           0           0           0           0           0           0
           0           0           0           0           0           0
           0           0           0           0
Num RLSW                                   I               52
RLSW                                       R   N=          52
  1.00000000E+00  1.00000000E+00  1.00000000E+00  1.00000000E+00  1.00000000E+00
  0.00000000E+00  0.00000000E+00  1.00000000E+00  0.00000000E+00  0.00000000E+00
  0.00000000E+00  0.00000000E+00  1.00000000E+00  0.00000000E+00  0.00000000E+00
  0.00000000E+00  0.00000000E+00  1.00000000E+00  0.00000000E+00  0.00000000E+00
  0.00000000E+00  0.00000000E+00  1.00000000E+00  0.00000000E+00  0.00000000E+00
  0.00000000E+00  0.00000000E+00  1.00000000E+00  0.00000000E+00  0.00000000E+00
  0.00000000E+00  0.00000000E+00  1.00000000E+00  0.00000000E+00  0.00000000E+00
  0.00000000E+00  0.00000000E+00  0.00000000E+00  1.00000000E+00  1.00000000E+00
  0.00000000E+00  1.00000000E+00  0.00000000E+00  0.00000000E+00  0.00000000E+00
  0.00000000E+00  0.00000000E+00  0.00000000E+00  0.00000000E+00  0.00000000E+00
  0.00000000E+00  0.00000000E+00
MxBond                                     I                2
NBond                                      I   N=           5
           1           2           2           2           1
IBond                                      I   N=          10
           2           0           1           3           2           4
           3           5           4           0
RBond                                      R   N=          10
  1.00000000E+00  0.00000000E+00  1.00000000E+00  1.00000000E+00  1.00000000E+00
  1.00000000E+00  1.00000000E+00  2.00000000E+00  2.00000000E+00  0.00000000E+00
Virial Ratio                               R      2.002362156152096E+00
SCF Energy                                 R     -2.795046483286544E+02
MP2 Energy                                 R     -2.804551023948197E+02
Total Energy                               R     -2.804551023948197E+02
Post-SCF wavefunction norm                 R      1.584846542410524E+00
RMS Force                                  R      2.425606866353092E-03
RMS Density                                R      4.868160831330719E-09
NImag                                      I                0
Job Status                                 I                1
Nuclear derivative order                   I                2
External E-field                           R   N=          35
  0.00000000E+00  0.00000000E+00  0.00000000E+00  0.00000000E+00  0.00000000E+00
  0.00000000E+00  0.00000000E+00  0.00000000E+00  0.00000000E+00  0.00000000E+00
  0.00000000E+00  0.00000000E+00  0.00000000E+00  0.00000000E+00  0.00000000E+00
  0.00000000E+00  0.00000000E+00  0.00000000E+00  0.00000000E+00  0.00000000E+00
  0.00000000E+00  0.00000000E+00  0.00000000E+00  0.00000000E+00  0.00000000E+00
  0.00000000E+00  0.00000000E+00  0.00000000E+00  0.00000000E+00  0.00000000E+00
  0.00000000E+00  0.00000000E+00  0.00000000E+00  0.00000000E+00  0.00000000E+00
IOpCl                                      I                0
IROHF                                      I                0
Alpha Orbital Energies                     R   N=         207
 -2.07166288E+01 -2.06916767E+01 -2.06671624E+01 -1.58283727E+01 -1.63994326E+00
 -1.50490725E+00 -1.28693842E+00 -9.61469972E-01 -8.32578364E-01 -7.56718744E-01
 -7.35746776E-01 -6.36914749E-01 -6.20135153E-01 -6.19140236E-01 -5.04247616E-01
 -4.95607691E-01  3.51579608E-02  5.74636486E-02  9.50178245E-02  1.00332092E-01
  1.19721655E-01  1.22174419E-01  1.49761755E-01  1.52532085E-01  1.77646367E-01
  1.80015341E-01  1.89903377E-01  2.10828085E-01  2.16771242E-01  2.41940566E-01
  2.46276252E-01  2.68346760E-01  3.11614921E-01  3.16087205E-01  3.36002687E-01
  3.37776671E-01  3.45291984E-01  3.89602756E-01  4.48328260E-01  4.88509805E-01
  5.04918064E-01  5.18037940E-01  5.44049411E-01  5.60578099E-01  5.98225424E-01
  6.19891690E-01  6.37577640E-01  6.88874143E-01  7.19352921E-01  7.23617723E-01
  7.42655772E-01  7.62950477E-01  7.66549794E-01  7.95763192E-01  8.04883848E-01
  8.39933936E-01  8.43874003E-01  8.51590049E-01  8.84009569E-01  9.07200786E-01
  9.28814551E-01  9.46264491E-01  9.56028141E-01  1.01764543E+00  1.03128754E+00
  1.06017056E+00  1.06525871E+00  1.09329146E+00  1.14300849E+00  1.15482617E+00
  1.16722379E+00  1.22115279E+00  1.22792908E+00  1.24566307E+00  1.35162990E+00
  1.36295474E+00  1.37324957E+00  1.46736819E+00  1.48474867E+00  1.50541205E+00
  1.54214832E+00  1.59503527E+00  1.59574023E+00  1.60109017E+00  1.62313136E+00
  1.69452537E+00  1.74079621E+00  1.80077841E+00  1.82694071E+00  1.88703765E+00
  1.89540943E+00  1.92253353E+00  1.97665487E+00  1.98724738E+00  2.05101006E+00
  2.11905868E+00  2.12777545E+00  2.15917158E+00  2.18731905E+00  2.24095980E+00
  2.25914407E+00  2.29524708E+00  2.35013107E+00  2.36292107E+00  2.38617168E+00
  2.40291152E+00  2.42720584E+00  2.46742855E+00  2.47605271E+00  2.52976549E+00
  2.53019929E+00  2.54827862E+00  2.55455903E+00  2.61131403E+00  2.62763215E+00
  2.66727477E+00  2.66782030E+00  2.75037965E+00  2.80540012E+00  2.80971600E+00
  2.84031846E+00  2.91181128E+00  2.97439433E+00  3.03958862E+00  3.04632208E+00
  3.11375765E+00  3.11610784E+00  3.17320050E+00  3.21320645E+00  3.30563944E+00
  3.32878042E+00  3.34943525E+00  3.48083756E+00  3.66313517E+00  3.85992999E+00
  3.92553955E+00  4.18218394E+00  4.21613855E+00  4.22031396E+00  4.26014963E+00
  4.36695466E+00  4.49741279E+00  4.51384319E+00  4.55244166E+00  4.59410248E+00
  4.69206398E+00  4.80739388E+00  4.88525188E+00  4.91083507E+00  4.93841234E+00
  4.98767549E+00  5.00245970E+00  5.09870431E+00  5.12986600E+00  5.17858057E+00
  5.24815783E+00  5.25668465E+00  5.30779614E+00  5.33731918E+00  5.35425815E+00
  5.54450883E+00  5.64035251E+00  5.69804776E+00  5.88574557E+00  6.00088562E+00
  6.26540010E+00  6.28546927E+00  6.34879248E+00  6.37616711E+00  6.59682061E+00
  6.65093804E+00  6.65635980E+00  6.68087834E+00  6.72163159E+00  6.80556473E+00
  6.80793649E+00  6.83813014E+00  6.95213782E+00  7.02046638E+00  7.06828114E+00
  7.07965647E+00  7.13961026E+00  7.16156086E+00  7.16910355E+00  7.20501216E+00
  7.24290198E+00  7.24374959E+00  7.26698778E+00  7.34249093E+00  7.37560315E+00
  7.41879423E+00  7.43867380E+00  7.46387132E+00  7.53752074E+00  7.65314620E+00
  7.65837448E+00  7.78888783E+00  7.87542359E+00  7.92491097E+00  8.04860645E+00
  8.30284347E+00  8.49282241E+00  8.63863456E+00  1.35194547E+01  1.46308429E+01
  1.50530880E+01  1.57165259E+01
Alpha MO coefficients                      R   N=       42849
  6.78459464E-05 -4.71150808E-05 -1.17810622E-03  8.56361131E-06 -5.22010367E-05
  4.34709273E-05  0.00000000E+00 -9.12031052E-05 -3.02706221E-04  0.00000000E+00
  6.45730948E-06 -3.63874731E-04  0.00000000E+00  4.35811668E-05  0.00000000E+00
  0.00000000E+00 -2.53454189E-05  1.34013235E-05  2.30883027E-04  0.00000000E+00
  0.00000000E+00 -4.31130600E-05 -2.07696935E-04  3.19732556E-03 -9.19466552E-05
 -9.58818674E-05  3.49152941E-03  2.49259801E-03  1.04151782E-04 -5.24263888E-05
  0.00000000E+00 -7.32669541E-04  2.76145252E-04  0.00000000E+00 -1.93868016E-03
  1.05113754E-03  0.00000000E+00 -5.39974669E-04  2.45913405E-05  0.00000000E+00
  2.08339592E-05  0.00000000E+00  0.00000000E+00 -1.06141168E-05  4.42393452E-05
 -4.45766907E-04  0.00000000E+00  0.00000000E+00  4.43739162E-04 -6.53799139E-04
 -3.62932841E-04  0.00000000E+00  0.00000000E+00  5.43544546E-04 -7.30468429E-04
  0.00000000E+00  7.52444026E-05 -5.22912867E-05  0.00000000E+00  0.00000000E+00
 -2.95418352E-05  1.06953683E-04  0.00000000E+00  2.10100977E-04 -4.93499895E-05
  0.00000000E+00  0.00000000E+00 -1.84541702E-04  3.00150918E-04  9.76919832E-01
 -9.14978162E-03  4.33777441E-02  5.78929652E-04 -2.19216580E-03  5.01094805E-04
 -2.11726275E-03  0.00000000E+00 -3.94988347E-04  2.20314261E-03  0.00000000E+00
 -2.21945958E-03 -5.51213485E-04  0.00000000E+00 -2.09982358E-04  9.82334678E-05
  0.00000000E+00  1.40491162E-05  0.00000000E+00  0.00000000E+00 -3.34861086E-06
  3.10609629E-05  8.14081591E-04  0.00000000E+00  0.00000000E+00 -4.81508708E-04
 -1.41058257E-04 -1.56606525E-04  0.00000000E+00  0.00000000E+00 -5.53433042E-04
  3.32901299E-04  0.00000000E+00 -2.80173649E-06 -7.90343098E-05  0.00000000E+00
  0.00000000E+00 -1.05130188E-05  4.80579473E-05  0.00000000E+00  9.12585327E-05
  9.23621922E-06  0.00000000E+00  0.00000000E+00 -3.25487515E-04  3.67908903E-04
  9.63824478E-05  3.96900295E-04 -3.22241622E-04 -7.00888996E-04  3.87559897E-04
 -4.59552929E-05 -1.02308688E-04  0.00000000E+00  6.18366874E-04  1.01890310E-03
  0.00000000E+00 -7.62703814E-04 -6.74716917E-04  0.00000000E+00  1.92616132E-04
  2.09966985E-04  0.00000000E+00 -4.33582183E-05  0.00000000E+00  0.00000000E+00
  2.11361210E-05  7.51950958E-05 -4.11549767E-04  0.00000000E+00  0.00000000E+00
 -2.54328118E-05  1.05169883E-03  2.37017112E-05  0.00000000E+00  0.00000000E+00
 -3.41223129E-04  3.43653913E-05  0.00000000E+00 -7.86511191E-05 -1.13816858E-04
  0.00000000E+00  0.00000000E+00 -1.02270445E-04  1.08049995E-04  0.00000000E+00
 -1.20291421E-04  4.27736296E-05  0.00000000E+00  0.00000000E+00 -1.02569620E-05
  5.19030173E-04 -9.02820790E-04  3.14552969E-05 -7.82160015E-05  1.38228946E-04
 -2.17957098E-04 -3.14745573E-05 -4.18491643E-05  0.00000000E+00  1.81906564E-04
  2.36689512E-04  0.00000000E+00  5.74799685E-04  2.96000415E-04  0.00000000E+00
 -2.09287591E-04 -7.27624461E-05  0.00000000E+00 -1.15909788E-05  0.00000000E+00
  0.00000000E+00  4.29693917E-06  1.33697282E-05 -2.34845993E-06  0.00000000E+00
  0.00000000E+00 -1.64137702E-04  3.15124862E-05 -1.67415265E-05  0.00000000E+00
  0.00000000E+00 -1.62713984E-04 -2.63537297E-05  0.00000000E+00 -7.74809787E-06
 -1.05275434E-05  0.00000000E+00  0.00000000E+00 -2.56398212E-05  7.14408139E-06
  0.00000000E+00  4.12789032E-05  6.18297237E-05  0.00000000E+00  0.00000000E+00
  1.50267440E-04 -1.01513175E-04  4.07384792E-05  3.83573298E-05 -1.47417844E-04
 -3.11016062E-05  1.41653752E-05  7.28452613E-06  0.00000000E+00  2.44149390E-04
  6.75791879E-05  0.00000000E+00  1.36220845E-04  2.78005895E-05  0.00000000E+00
  1.52174845E-05  0.00000000E+00  0.00000000E+00 -1.45317596E-05  1.31471687E-05
  2.40224078E-05  0.00000000E+00  0.00000000E+00 -1.06912471E-04  5.70709922E-05
 -1.83172375E-04  1.93017306E-05 -1.26571446E-05 -5.48200107E-04  1.74156302E-04
  7.26568379E-06  1.35883136E-05  0.00000000E+00 -1.48403922E-07 -3.96501453E-05
  0.00000000E+00  1.85630296E-04  9.54131162E-05  0.00000000E+00 -5.25592487E-05
  4.32010089E-05  0.00000000E+00 -6.27888577E-07  0.00000000E+00  0.00000000E+00
 -8.22313128E-06 -1.25973946E-05  1.63832589E-05  0.00000000E+00  0.00000000E+00
  4.60986466E-05  1.08872236E-04  5.55171583E-05  0.00000000E+00  0.00000000E+00
 -3.23238760E-05 -6.64581161E-05  0.00000000E+00  7.72967976E-06  1.04627828E-05
  0.00000000E+00  0.00000000E+00 -6.02808834E-07 -2.28276969E-05  0.00000000E+00
 -1.24385658E-05 -3.21587409E-05  0.00000000E+00  0.00000000E+00 -1.78140940E-06
 -2.09735218E-05  9.27305418E-04  1.77248235E-05 -9.36695928E-06  2.53481828E-04
 -4.23998866E-04  1.56421511E-05  2.74723761E-05  0.00000000E+00 -5.62223958E-05
 -1.45636258E-04  0.00000000E+00  2.11451892E-04 -1.63300099E-04  0.00000000E+00
 -1.45647084E-04  1.46243560E-04  0.00000000E+00 -3.69319288E-06  0.00000000E+00
  0.00000000E+00 -2.75098885E-05 -1.00129337E-05 -4.90687851E-05  0.00000000E+00
  0.00000000E+00  6.72133027E-05  1.13679108E-04 -5.78257087E-05  0.00000000E+00
  0.00000000E+00  4.95247150E-05  8.16890659E-06  0.00000000E+00  2.86903755E-06
  4.97314731E-06  0.00000000E+00  0.00000000E+00 -6.40177266E-06  6.84476227E-07
  0.00000000E+00  2.96850511E-06 -2.63500402E-05  0.00000000E+00  0.00000000E+00
  9.64014444E-05 -1.45621869E-04  2.39649098E-04  1.36826180E-03 -1.50980452E-04
 -5.97001236E-04  9.26109472E-04  6.33049985E-05 -7.23818178E-05  0.00000000E+00
  5.98282873E-04 -2.05372327E-03  0.00000000E+00  1.35707843E-04  4.96710878E-04
  0.00000000E+00  1.87801080E-04 -3.01018699E-04  0.00000000E+00 -1.28296470E-04
  0.00000000E+00  0.00000000E+00 -1.99863744E-04 -1.60204511E-04 -4.65194631E-04
  0.00000000E+00  0.00000000E+00 -6.02890919E-04 -9.11880967E-04 -4.80217863E-05
  0.00000000E+00  0.00000000E+00  5.13998114E-05  1.19267532E-04  0.00000000E+00
  7.99096840E-06  3.55584550E-05  0.00000000E+00  0.00000000E+00 -2.70045826E-05
 -4.02384788E-06  0.00000000E+00 -1.34641947E-04  1.59855837E-04  0.00000000E+00
  0.00000000E+00 -3.20351319E-04 -3.19933699E-05  9.76651433E-01 -9.89152801E-03
  4.35633701E-02  3.66817893E-03 -8.91904202E-04 -4.65804027E-04  2.12393110E-03
  0.00000000E+00  5.34181937E-04 -2.49893441E-03  0.00000000E+00 -6.20885538E-05
  8.17199370E-04  0.00000000E+00  1.07456213E-04 -6.39126183E-05  0.00000000E+00
 -1.94629852E-04  0.00000000E+00  0.00000000E+00 -7.32432467E-05 -4.65147938E-05
  4.04955331E-04  0.00000000E+00  0.00000000E+00  8.46170669E-04  4.96766076E-04
 -2.09602004E-04  0.00000000E+00  0.00000000E+00 -1.40798966E-04 -3.81940821E-05
  0.00000000E+00 -5.05921710E-06  7.01780257E-05  0.00000000E+00  0.00000000E+00
 -3.02438685E-05  9.88442538E-06  0.00000000E+00 -8.97433142E-05  8.90468797E-05
  0.00000000E+00  0.00000000E+00 -1.68464354E-04  1.99684793E-04  3.78769740E-04
  1.98539845E-03  1.29722752E-03 -1.87956755E-05  4.77227373E-05  2.69779799E-04
  0.00000000E+00  3.88767349E-04  1.03685000E-03  0.00000000E+00 -1.07767111E-04
  2.25623959E-04  0.00000000E+00 -2.29704408E-05  0.00000000E+00  0.00000000E+00
  3.11691653E-05 -2.76398256E-05 -2.12769161E-04  0.00000000E+00  0.00000000E+00
 -3.60616251E-04  4.00372095E-04  9.76835903E-01 -9.18364226E-03  4.34617476E-02
  1.05374399E-04 -1.87489797E-03 -2.03344454E-03 -8.55117607E-04  0.00000000E+00
  2.06981948E-03  7.92178634E-04  0.00000000E+00 -3.83612337E-04  6.32435447E-04
  0.00000000E+00  2.18741200E-04 -2.96472696E-04  0.00000000E+00  3.16931031E-05
  0.00000000E+00  0.00000000E+00 -7.47294986E-05  6.07449307E-05  7.65097436E-04
  0.00000000E+00  0.00000000E+00 -2.06180192E-04  3.49738345E-04 -2.35703764E-04
  0.00000000E+00  0.00000000E+00  3.32133218E-04  3.73474307E-06  0.00000000E+00
 -7.99923633E-05  6.77699797E-07  0.00000000E+00  0.00000000E+00  1.68293172E-05