 Entering Gaussian System, Link 0=g16
 Input=hoono_a2_111p5307.gjf
 Output=hoono_a2_111p5307.log
 Initial command:
 /sw/contrib/gaussian/g16/B01/g16/l1.exe "/scr/Gau-384.inp" -scrdir="/scr/"
 Entering Link 1 = /sw/contrib/gaussian/g16/B01/g16/l1.exe PID=       385.
  
 Copyright (c) 1988-2017, Gaussian, Inc.  All Rights Reserved.
  
 This is part of the Gaussian(R) 16 program.  It is based on
 the Gaussian(R) 09 system (copyright 2009, Gaussian, Inc.),
 the Gaussian(R) 03 system (copyright 2003, Gaussian, Inc.),
 the Gaussian(R) 98 system (copyright 1998, Gaussian, Inc.),
 the Gaussian(R) 94 system (copyright 1995, Gaussian, Inc.),
 the Gaussian 92(TM) system (copyright 1992, Gaussian, Inc.),
 the Gaussian 90(TM) system (copyright 1990, Gaussian, Inc.),
 the Gaussian 88(TM) system (copyright 1988, Gaussian, Inc.),
 the Gaussian 86(TM) system (copyright 1986, Carnegie Mellon
 University), and the Gaussian 82(TM) system (copyright 1983,
 Carnegie Mellon University). Gaussian is a federally registered
 trademark of Gaussian, Inc.
  
 This software contains proprietary and confidential information,
 including trade secrets, belonging to Gaussian, Inc.
  
 This software is provided under written license and may be
 used, copied, transmitted, or stored only in accord with that
 written license.
  
 The following legend is applicable only to US Government
 contracts under FAR:
  
                    RESTRICTED RIGHTS LEGEND
  
 Use, reproduction and disclosure by the US Government is
 subject to restrictions as set forth in subparagraphs (a)
 and (c) of the Commercial Computer Software - Restricted
 Rights clause in FAR 52.227-19.
  
 Gaussian, Inc.
 340 Quinnipiac St., Bldg. 40, Wallingford CT 06492
  
  
 ---------------------------------------------------------------
 Warning -- This program may not be used in any manner that
 competes with the business of Gaussian, Inc. or will provide
 assistance to any competitor of Gaussian, Inc.  The licensee
 of this program is prohibited from giving any competitor of
 Gaussian, Inc. access to this program.  By using this program,
 the user acknowledges that Gaussian, Inc. is engaged in the
 business of creating and licensing software in the field of
 computational chemistry and represents and warrants to the
 licensee that it is not a competitor of Gaussian, Inc. and that
 it will not use this program in any manner prohibited above.
 ---------------------------------------------------------------
  

 Cite this work as:
 Gaussian 16, Revision B.01,
 M. J. Frisch, G. W. Trucks, H. B. Schlegel, G. E. Scuseria, 
 M. A. Robb, J. R. Cheeseman, G. Scalmani, V. Barone, 
 G. A. Petersson, H. Nakatsuji, X. Li, M. Caricato, A. V. Marenich, 
 J. Bloino, B. G. Janesko, R. Gomperts, B. Mennucci, H. P. Hratchian, 
 J. V. Ortiz, A. F. Izmaylov, J. L. Sonnenberg, D. Williams-Young, 
 F. Ding, F. Lipparini, F. Egidi, J. Goings, B. Peng, A. Petrone, 
 T. Henderson, D. Ranasinghe, V. G. Zakrzewski, J. Gao, N. Rega, 
 G. Zheng, W. Liang, M. Hada, M. Ehara, K. Toyota, R. Fukuda, 
 J. Hasegawa, M. Ishida, T. Nakajima, Y. Honda, O. Kitao, H. Nakai, 
 T. Vreven, K. Throssell, J. A. Montgomery, Jr., J. E. Peralta, 
 F. Ogliaro, M. J. Bearpark, J. J. Heyd, E. N. Brothers, K. N. Kudin, 
 V. N. Staroverov, T. A. Keith, R. Kobayashi, J. Normand, 
 K. Raghavachari, A. P. Rendell, J. C. Burant, S. S. Iyengar, 
 J. Tomasi, M. Cossi, J. M. Millam, M. Klene, C. Adamo, R. Cammi, 
 J. W. Ochterski, R. L. Martin, K. Morokuma, O. Farkas, 
 J. B. Foresman, and D. J. Fox, Gaussian, Inc., Wallingford CT, 2016.
 
 ******************************************
 Gaussian 16:  ES64L-G16RevB.01 20-Dec-2017
                 6-Mar-2022 
 ******************************************
 %nproc=28
 Will use up to   28 processors via shared memory.
 %mem=120GB
 %chk=hoono_a2_111p5307.chk
 ---------------------------------------
 #p freq mp2/aug-cc-pvtz density=current
 ---------------------------------------
 1/10=4,30=1,38=1/1,3;
 2/12=2,17=6,18=5,40=1/2;
 3/5=16,6=1,7=10,11=9,25=1,30=1,71=2,140=1/1,2,3;
 4//1;
 5/5=2,38=5,98=1/2;
 8/6=3,8=1,10=1,19=11,30=-1/1;
 9/15=3,16=-3/6;
 11/6=1,8=1,15=11,17=12,24=-1,27=1,28=-2,29=300,32=6,42=3/1,2,10;
 10/6=2,21=1/2;
 8/6=4,8=1,10=1,19=11,30=-1/11,4;
 10/5=1,20=4/2;
 11/12=2,14=11,16=1,17=2,28=-2,42=3,76=2/2,10,12;
 6/7=2,8=2,9=2,10=2,22=-1/1;
 7/8=1,10=1,12=2,25=1,44=2/1,2,3,16;
 1/10=4,30=1/3;
 99//99;
 Leave Link    1 at Sun Mar  6 19:35:34 2022, MaxMem= 16106127360 cpu:               2.3 elap:               0.1
 (Enter /sw/contrib/gaussian/g16/B01/g16/l101.exe)
 -----
 title
 -----
 Symbolic Z-matrix:
 Charge =  0 Multiplicity = 1
 H
 O                    1    r1
 O                    2    r2       1    a1
 N                    3    r3       2    a2       1    d1       0
 O                    4    r4       3    a3       2    d2       0
       Variables:
  r1                    0.98538                  
  r2                    1.42674                  
  r3                    1.38111                  
  r4                    1.19479                  
  a1                  100.63551                  
  a2                  111.53079                  
  a3                  114.33392                  
  d1                    0.                       
  d2                    0.                       
 
 ITRead=  0  0  0  0  0
 MicOpt= -1 -1 -1 -1 -1
 NAtoms=      5 NQM=        5 NQMF=       0 NMMI=      0 NMMIF=      0
                NMic=       0 NMicF=      0.
                    Isotopes and Nuclear Properties:
 (Nuclear quadrupole moments (NQMom) in fm**2, nuclear magnetic moments (NMagM)
  in nuclear magnetons)

  Atom         1           2           3           4           5
 IAtWgt=           1          16          16          14          16
 AtmWgt=   1.0078250  15.9949146  15.9949146  14.0030740  15.9949146
 NucSpn=           1           0           0           2           0
 AtZEff=  -0.0000000  -0.0000000  -0.0000000  -0.0000000  -0.0000000
 NQMom=    0.0000000   0.0000000   0.0000000   2.0440000   0.0000000
 NMagM=    2.7928460   0.0000000   0.0000000   0.4037610   0.0000000
 AtZNuc=   1.0000000   8.0000000   8.0000000   7.0000000   8.0000000
 Leave Link  101 at Sun Mar  6 19:35:34 2022, MaxMem= 16106127360 cpu:               2.3 elap:               0.1
 (Enter /sw/contrib/gaussian/g16/B01/g16/l103.exe)

 GradGradGradGradGradGradGradGradGradGradGradGradGradGradGradGradGradGrad
 Berny optimization.
 Initialization pass.
                       ----------------------------
                       !    Initial Parameters    !
                       ! (Angstroms and Degrees)  !
 ----------------------                            ----------------------
 !      Name          Value   Derivative information (Atomic Units)     !
 ------------------------------------------------------------------------
 !       r1          0.9854   calculate D2E/DX2 analytically            !
 !       r2          1.4267   calculate D2E/DX2 analytically            !
 !       r3          1.3811   calculate D2E/DX2 analytically            !
 !       r4          1.1948   calculate D2E/DX2 analytically            !
 !       a1        100.6355   calculate D2E/DX2 analytically            !
 !       a2        111.5308   calculate D2E/DX2 analytically            !
 !       a3        114.3339   calculate D2E/DX2 analytically            !
 !       d1          0.0      calculate D2E/DX2 analytically            !
 !       d2          0.0      calculate D2E/DX2 analytically            !
 ------------------------------------------------------------------------
 Trust Radius=3.00D-01 FncErr=1.00D-07 GrdErr=1.00D-07 EigMax=2.50D+02 EigMin=1.00D-04
 Number of steps in this run=      2 maximum allowed number of steps=      2.
 GradGradGradGradGradGradGradGradGradGradGradGradGradGradGradGradGradGrad

 Leave Link  103 at Sun Mar  6 19:35:34 2022, MaxMem= 16106127360 cpu:               0.6 elap:               0.0
 (Enter /sw/contrib/gaussian/g16/B01/g16/l202.exe)
                          Input orientation:                          
 ---------------------------------------------------------------------
 Center     Atomic      Atomic             Coordinates (Angstroms)
 Number     Number       Type             X           Y           Z
 ---------------------------------------------------------------------
      1          1           0        0.000000    0.000000    0.000000
      2          8           0        0.000000    0.000000    0.985377
      3          8           0        1.402227    0.000000    1.248696
      4          7           0        2.137499    0.000000    0.079579
      5          8           0        1.478055    0.000000   -0.916740
 ---------------------------------------------------------------------
                    Distance matrix (angstroms):
                    1          2          3          4          5
     1  H    0.000000
     2  O    0.985377   0.000000
     3  O    1.877627   1.426737   0.000000
     4  N    2.138980   2.321502   1.381108   0.000000
     5  O    1.739270   2.408878   2.166763   1.194788   0.000000
 Stoichiometry    HNO3
 Framework group  CS[SG(HNO3)]
 Deg. of freedom     7
 Full point group                 CS      NOp   2
 Largest Abelian subgroup         CS      NOp   2
 Largest concise Abelian subgroup C1      NOp   1
                         Standard orientation:                         
 ---------------------------------------------------------------------
 Center     Atomic      Atomic             Coordinates (Angstroms)
 Number     Number       Type             X           Y           Z
 ---------------------------------------------------------------------
      1          1           0        1.075150   -0.612201    0.000000
      2          8           0        1.303210    0.346421    0.000000
      3          8           0        0.000000    0.927128    0.000000
      4          7           0       -0.985893   -0.040070    0.000000
      5          8           0       -0.574947   -1.161963    0.000000
 ---------------------------------------------------------------------
 Rotational constants (GHZ):          21.0593574           8.3025578           5.9548749
 Leave Link  202 at Sun Mar  6 19:35:34 2022, MaxMem= 16106127360 cpu:               0.3 elap:               0.0
 (Enter /sw/contrib/gaussian/g16/B01/g16/l301.exe)
 Standard basis: Aug-CC-pVTZ (5D, 7F)
 Ernie: Thresh=  0.10000D-02 Tol=  0.10000D-05 Strict=F.
 Ernie:  12 primitive shells out of 131 were deleted.
 There are   166 symmetry adapted cartesian basis functions of A'  symmetry.
 There are    79 symmetry adapted cartesian basis functions of A"  symmetry.
 There are   136 symmetry adapted basis functions of A'  symmetry.
 There are    71 symmetry adapted basis functions of A"  symmetry.
   207 basis functions,   315 primitive gaussians,   245 cartesian basis functions
    16 alpha electrons       16 beta electrons
       nuclear repulsion energy       123.1683671419 Hartrees.
 IExCor=    0 DFT=F Ex=HF Corr=None ExCW=0 ScaHFX=  1.000000
 ScaDFX=  1.000000  1.000000  1.000000  1.000000 ScalE2=  1.000000  1.000000
 IRadAn=      5 IRanWt=     -1 IRanGd=            0 ICorTp=0 IEmpDi=  4
 NAtoms=    5 NActive=    5 NUniq=    5 SFac= 1.00D+00 NAtFMM=   60 NAOKFM=F Big=F
 Integral buffers will be    131072 words long.
 Raffenetti 1 integral format.
 Two-electron integral symmetry is turned on.
 Leave Link  301 at Sun Mar  6 19:35:34 2022, MaxMem= 16106127360 cpu:               1.8 elap:               0.1
 (Enter /sw/contrib/gaussian/g16/B01/g16/l302.exe)
 NPDir=0 NMtPBC=     1 NCelOv=     1 NCel=       1 NClECP=     1 NCelD=      1
         NCelK=      1 NCelE2=     1 NClLst=     1 CellRange=     0.0.
 One-electron integrals computed using PRISM.
 One-electron integral symmetry used in STVInt
 NBasis=   207 RedAO= T EigKep=  1.31D-04  NBF=   136    71
 NBsUse=   207 1.00D-06 EigRej= -1.00D+00 NBFU=   136    71
 Leave Link  302 at Sun Mar  6 19:35:35 2022, MaxMem= 16106127360 cpu:               4.7 elap:               0.2
 (Enter /sw/contrib/gaussian/g16/B01/g16/l303.exe)
 DipDrv:  MaxL=1.
 Leave Link  303 at Sun Mar  6 19:35:35 2022, MaxMem= 16106127360 cpu:               1.6 elap:               0.1
 (Enter /sw/contrib/gaussian/g16/B01/g16/l401.exe)
 ExpMin= 2.53D-02 ExpMax= 1.53D+04 ExpMxC= 5.22D+02 IAcc=3 IRadAn=         5 AccDes= 0.00D+00
 Harris functional with IExCor=  205 and IRadAn=       5 diagonalized for initial guess.
 HarFok:  IExCor=  205 AccDes= 0.00D+00 IRadAn=         5 IDoV= 1 UseB2=F ITyADJ=14
 ICtDFT=  3500011 ScaDFX=  1.000000  1.000000  1.000000  1.000000
 FoFCou: FMM=F IPFlag=           0 FMFlag=      100000 FMFlg1=           0
         NFxFlg=           0 DoJE=T BraDBF=F KetDBF=T FulRan=T
         wScrn=  0.000000 ICntrl=       500 IOpCl=  0 I1Cent=   200000004 NGrid=           0
         NMat0=    1 NMatS0=      1 NMatT0=    0 NMatD0=    1 NMtDS0=    0 NMtDT0=    0
 Petite list used in FoFCou.
 Harris En= -279.645260204259    
 JPrj=0 DoOrth=F DoCkMO=F.
 Initial guess orbital symmetries:
       Occupied  (A') (A') (A') (A') (A') (A') (A') (A') (A') (A')
                 (A") (A') (A') (A") (A") (A')
       Virtual   (A") (A') (A') (A') (A') (A") (A') (A') (A') (A')
                 (A") (A') (A") (A') (A') (A") (A') (A') (A") (A')
                 (A') (A') (A') (A') (A") (A') (A') (A') (A") (A')
                 (A') (A") (A") (A') (A') (A") (A') (A") (A') (A")
                 (A') (A") (A') (A") (A') (A') (A') (A") (A') (A')
                 (A') (A") (A') (A") (A') (A") (A') (A') (A') (A')
                 (A") (A') (A") (A') (A') (A") (A') (A") (A') (A')
                 (A") (A') (A") (A") (A') (A') (A") (A') (A') (A')
                 (A") (A') (A') (A") (A') (A") (A') (A") (A') (A')
                 (A') (A") (A') (A") (A') (A') (A") (A') (A") (A')
                 (A") (A') (A') (A") (A") (A') (A') (A') (A") (A')
                 (A") (A') (A') (A') (A") (A') (A') (A') (A") (A')
                 (A") (A') (A') (A") (A") (A") (A") (A') (A') (A')
                 (A') (A') (A') (A") (A') (A") (A") (A') (A') (A')
                 (A") (A") (A') (A') (A') (A") (A') (A') (A') (A")
                 (A') (A') (A') (A") (A') (A") (A") (A') (A') (A")
                 (A') (A") (A") (A') (A") (A') (A") (A') (A") (A')
                 (A") (A") (A") (A') (A") (A') (A') (A') (A") (A')
                 (A') (A') (A') (A') (A') (A') (A') (A') (A') (A')
                 (A')
 The electronic state of the initial guess is 1-A'.
 Leave Link  401 at Sun Mar  6 19:35:35 2022, MaxMem= 16106127360 cpu:               7.0 elap:               0.3
 (Enter /sw/contrib/gaussian/g16/B01/g16/l502.exe)
 Keep R1 ints in memory in symmetry-blocked form, NReq=348887737.
 FoFCou: FMM=F IPFlag=           0 FMFlag=           0 FMFlg1=           0
         NFxFlg=           0 DoJE=F BraDBF=F KetDBF=F FulRan=T
         wScrn=  0.000000 ICntrl=       600 IOpCl=  0 I1Cent=           0 NGrid=           0
         NMat0=    1 NMatS0=  21528 NMatT0=    0 NMatD0=    1 NMtDS0=    0 NMtDT0=    0
 Petite list used in FoFCou.
 Closed shell SCF:
 Using DIIS extrapolation, IDIIS=  1040.
 NGot= 16106127360 LenX= 15988850015 LenY= 15988789549
 Requested convergence on RMS density matrix=1.00D-08 within 128 cycles.
 Requested convergence on MAX density matrix=1.00D-06.
 Requested convergence on             energy=1.00D-06.
 No special actions if energy rises.

 Cycle   1  Pass 1  IDiag  1:
 E= -279.363252317171    
 DIIS: error= 2.73D-02 at cycle   1 NSaved=   1.
 NSaved= 1 IEnMin= 1 EnMin= -279.363252317171     IErMin= 1 ErrMin= 2.73D-02
 ErrMax= 2.73D-02  0.00D+00 EMaxC= 1.00D-01 BMatC= 4.51D-01 BMatP= 4.51D-01
 IDIUse=3 WtCom= 7.27D-01 WtEn= 2.73D-01
 Coeff-Com:  0.100D+01
 Coeff-En:   0.100D+01
 Coeff:      0.100D+01
 Gap=     0.498 Goal=   None    Shift=    0.000
 GapD=    0.498 DampG=2.000 DampE=0.500 DampFc=1.0000 IDamp=-1.
 RMSDP=1.68D-03 MaxDP=8.82D-02              OVMax= 1.24D-01

 Cycle   2  Pass 1  IDiag  1:
 E= -279.445464117078     Delta-E=       -0.082211799908 Rises=F Damp=F
 DIIS: error= 1.97D-02 at cycle   2 NSaved=   2.
 NSaved= 2 IEnMin= 2 EnMin= -279.445464117078     IErMin= 2 ErrMin= 1.97D-02
 ErrMax= 1.97D-02  0.00D+00 EMaxC= 1.00D-01 BMatC= 8.63D-02 BMatP= 4.51D-01
 IDIUse=3 WtCom= 8.03D-01 WtEn= 1.97D-01
 Coeff-Com:  0.219D+00 0.781D+00
 Coeff-En:   0.783D-01 0.922D+00
 Coeff:      0.191D+00 0.809D+00
 Gap=     0.564 Goal=   None    Shift=    0.000
 RMSDP=9.71D-04 MaxDP=3.74D-02 DE=-8.22D-02 OVMax= 9.14D-02

 Cycle   3  Pass 1  IDiag  1:
 E= -279.483396848918     Delta-E=       -0.037932731840 Rises=F Damp=F
 DIIS: error= 1.11D-02 at cycle   3 NSaved=   3.
 NSaved= 3 IEnMin= 3 EnMin= -279.483396848918     IErMin= 3 ErrMin= 1.11D-02
 ErrMax= 1.11D-02  0.00D+00 EMaxC= 1.00D-01 BMatC= 3.10D-02 BMatP= 8.63D-02
 IDIUse=3 WtCom= 8.89D-01 WtEn= 1.11D-01
 Coeff-Com: -0.346D-01 0.364D+00 0.670D+00
 Coeff-En:   0.000D+00 0.217D+00 0.783D+00
 Coeff:     -0.308D-01 0.348D+00 0.683D+00
 Gap=     0.542 Goal=   None    Shift=    0.000
 RMSDP=4.11D-04 MaxDP=1.58D-02 DE=-3.79D-02 OVMax= 3.86D-02

 Cycle   4  Pass 1  IDiag  1:
 E= -279.504562108540     Delta-E=       -0.021165259621 Rises=F Damp=F
 DIIS: error= 1.68D-03 at cycle   4 NSaved=   4.
 NSaved= 4 IEnMin= 4 EnMin= -279.504562108540     IErMin= 4 ErrMin= 1.68D-03
 ErrMax= 1.68D-03  0.00D+00 EMaxC= 1.00D-01 BMatC= 6.08D-04 BMatP= 3.10D-02
 IDIUse=3 WtCom= 9.83D-01 WtEn= 1.68D-02
 Coeff-Com: -0.121D-01 0.482D-01 0.156D+00 0.808D+00
 Coeff-En:   0.000D+00 0.000D+00 0.000D+00 0.100D+01
 Coeff:     -0.119D-01 0.474D-01 0.154D+00 0.811D+00
 Gap=     0.529 Goal=   None    Shift=    0.000
 RMSDP=9.89D-05 MaxDP=2.28D-03 DE=-2.12D-02 OVMax= 1.17D-02

 Cycle   5  Pass 1  IDiag  1:
 E= -279.505376711127     Delta-E=       -0.000814602587 Rises=F Damp=F
 DIIS: error= 1.11D-03 at cycle   5 NSaved=   5.
 NSaved= 5 IEnMin= 5 EnMin= -279.505376711127     IErMin= 5 ErrMin= 1.11D-03
 ErrMax= 1.11D-03  0.00D+00 EMaxC= 1.00D-01 BMatC= 1.03D-04 BMatP= 6.08D-04
 IDIUse=3 WtCom= 9.89D-01 WtEn= 1.11D-02
 Coeff-Com:  0.540D-02-0.660D-01-0.112D+00 0.564D-01 0.112D+01
 Coeff-En:   0.000D+00 0.000D+00 0.000D+00 0.000D+00 0.100D+01
 Coeff:      0.534D-02-0.653D-01-0.110D+00 0.558D-01 0.111D+01
 Gap=     0.533 Goal=   None    Shift=    0.000
 RMSDP=8.01D-05 MaxDP=2.11D-03 DE=-8.15D-04 OVMax= 1.30D-02

 Cycle   6  Pass 1  IDiag  1:
 E= -279.505741045513     Delta-E=       -0.000364334386 Rises=F Damp=F
 DIIS: error= 3.40D-04 at cycle   6 NSaved=   6.
 NSaved= 6 IEnMin= 6 EnMin= -279.505741045513     IErMin= 6 ErrMin= 3.40D-04
 ErrMax= 3.40D-04  0.00D+00 EMaxC= 1.00D-01 BMatC= 2.38D-05 BMatP= 1.03D-04
 IDIUse=3 WtCom= 9.97D-01 WtEn= 3.40D-03
 Coeff-Com:  0.189D-02-0.713D-02-0.180D-01-0.181D+00 0.855D-02 0.120D+01
 Coeff-En:   0.000D+00 0.000D+00 0.000D+00 0.000D+00 0.000D+00 0.100D+01
 Coeff:      0.188D-02-0.710D-02-0.179D-01-0.180D+00 0.852D-02 0.119D+01
 Gap=     0.533 Goal=   None    Shift=    0.000
 RMSDP=4.66D-05 MaxDP=1.07D-03 DE=-3.64D-04 OVMax= 6.10D-03

 Cycle   7  Pass 1  IDiag  1:
 E= -279.505826412360     Delta-E=       -0.000085366848 Rises=F Damp=F
 DIIS: error= 1.18D-04 at cycle   7 NSaved=   7.
 NSaved= 7 IEnMin= 7 EnMin= -279.505826412360     IErMin= 7 ErrMin= 1.18D-04
 ErrMax= 1.18D-04  0.00D+00 EMaxC= 1.00D-01 BMatC= 3.48D-06 BMatP= 2.38D-05
 IDIUse=3 WtCom= 9.99D-01 WtEn= 1.18D-03
 Coeff-Com: -0.108D-02 0.113D-01 0.248D-01 0.173D-01-0.179D+00-0.155D+00
 Coeff-Com:  0.128D+01
 Coeff-En:   0.000D+00 0.000D+00 0.000D+00 0.000D+00 0.000D+00 0.000D+00
 Coeff-En:   0.100D+01
 Coeff:     -0.108D-02 0.113D-01 0.248D-01 0.172D-01-0.179D+00-0.155D+00
 Coeff:      0.128D+01
 Gap=     0.533 Goal=   None    Shift=    0.000
 RMSDP=1.73D-05 MaxDP=5.09D-04 DE=-8.54D-05 OVMax= 2.31D-03

 Cycle   8  Pass 1  IDiag  1:
 E= -279.505838141889     Delta-E=       -0.000011729529 Rises=F Damp=F
 DIIS: error= 4.61D-05 at cycle   8 NSaved=   8.
 NSaved= 8 IEnMin= 8 EnMin= -279.505838141889     IErMin= 8 ErrMin= 4.61D-05
 ErrMax= 4.61D-05  0.00D+00 EMaxC= 1.00D-01 BMatC= 5.86D-07 BMatP= 3.48D-06
 IDIUse=1 WtCom= 1.00D+00 WtEn= 0.00D+00
 Coeff-Com: -0.554D-03 0.406D-02 0.960D-02 0.245D-01-0.555D-01-0.192D+00
 Coeff-Com:  0.356D+00 0.855D+00
 Coeff:     -0.554D-03 0.406D-02 0.960D-02 0.245D-01-0.555D-01-0.192D+00
 Coeff:      0.356D+00 0.855D+00
 Gap=     0.533 Goal=   None    Shift=    0.000
 RMSDP=5.34D-06 MaxDP=1.50D-04 DE=-1.17D-05 OVMax= 6.29D-04

 Cycle   9  Pass 1  IDiag  1:
 E= -279.505839472386     Delta-E=       -0.000001330496 Rises=F Damp=F
 DIIS: error= 2.28D-05 at cycle   9 NSaved=   9.
 NSaved= 9 IEnMin= 9 EnMin= -279.505839472386     IErMin= 9 ErrMin= 2.28D-05
 ErrMax= 2.28D-05  0.00D+00 EMaxC= 1.00D-01 BMatC= 1.14D-07 BMatP= 5.86D-07
 IDIUse=1 WtCom= 1.00D+00 WtEn= 0.00D+00
 Coeff-Com:  0.237D-03-0.251D-02-0.525D-02-0.554D-02 0.461D-01 0.481D-01
 Coeff-Com: -0.337D+00 0.365D-01 0.122D+01
 Coeff:      0.237D-03-0.251D-02-0.525D-02-0.554D-02 0.461D-01 0.481D-01
 Coeff:     -0.337D+00 0.365D-01 0.122D+01
 Gap=     0.533 Goal=   None    Shift=    0.000
 RMSDP=2.43D-06 MaxDP=6.62D-05 DE=-1.33D-06 OVMax= 2.55D-04

 Cycle  10  Pass 1  IDiag  1:
 E= -279.505839727687     Delta-E=       -0.000000255301 Rises=F Damp=F
 DIIS: error= 5.28D-06 at cycle  10 NSaved=  10.
 NSaved=10 IEnMin=10 EnMin= -279.505839727687     IErMin=10 ErrMin= 5.28D-06
 ErrMax= 5.28D-06  0.00D+00 EMaxC= 1.00D-01 BMatC= 7.96D-09 BMatP= 1.14D-07
 IDIUse=1 WtCom= 1.00D+00 WtEn= 0.00D+00
 Coeff-Com: -0.341D-04 0.444D-03 0.109D-02-0.186D-02-0.101D-01 0.637D-02
 Coeff-Com:  0.663D-01-0.542D-01-0.410D+00 0.140D+01
 Coeff:     -0.341D-04 0.444D-03 0.109D-02-0.186D-02-0.101D-01 0.637D-02
 Coeff:      0.663D-01-0.542D-01-0.410D+00 0.140D+01
 Gap=     0.533 Goal=   None    Shift=    0.000
 RMSDP=6.78D-07 MaxDP=2.39D-05 DE=-2.55D-07 OVMax= 7.46D-05

 Cycle  11  Pass 1  IDiag  1:
 E= -279.505839751536     Delta-E=       -0.000000023850 Rises=F Damp=F
 DIIS: error= 2.16D-06 at cycle  11 NSaved=  11.
 NSaved=11 IEnMin=11 EnMin= -279.505839751536     IErMin=11 ErrMin= 2.16D-06
 ErrMax= 2.16D-06  0.00D+00 EMaxC= 1.00D-01 BMatC= 8.81D-10 BMatP= 7.96D-09
 IDIUse=1 WtCom= 1.00D+00 WtEn= 0.00D+00
 Coeff-Com: -0.186D-04 0.195D-03 0.417D-03 0.806D-03-0.281D-02-0.709D-02
 Coeff-Com:  0.236D-01 0.165D-01-0.756D-01-0.261D+00 0.130D+01
 Coeff:     -0.186D-04 0.195D-03 0.417D-03 0.806D-03-0.281D-02-0.709D-02
 Coeff:      0.236D-01 0.165D-01-0.756D-01-0.261D+00 0.130D+01
 Gap=     0.533 Goal=   None    Shift=    0.000
 RMSDP=2.42D-07 MaxDP=9.01D-06 DE=-2.38D-08 OVMax= 2.85D-05

 Cycle  12  Pass 1  IDiag  1:
 E= -279.505839754601     Delta-E=       -0.000000003064 Rises=F Damp=F
 DIIS: error= 8.11D-07 at cycle  12 NSaved=  12.
 NSaved=12 IEnMin=12 EnMin= -279.505839754601     IErMin=12 ErrMin= 8.11D-07
 ErrMax= 8.11D-07  0.00D+00 EMaxC= 1.00D-01 BMatC= 9.99D-11 BMatP= 8.81D-10
 IDIUse=1 WtCom= 1.00D+00 WtEn= 0.00D+00
 Coeff-Com:  0.218D-05-0.419D-04-0.943D-04 0.190D-03 0.117D-02-0.120D-02
 Coeff-Com: -0.712D-02 0.816D-02 0.432D-01-0.141D+00-0.149D+00 0.125D+01
 Coeff:      0.218D-05-0.419D-04-0.943D-04 0.190D-03 0.117D-02-0.120D-02
 Coeff:     -0.712D-02 0.816D-02 0.432D-01-0.141D+00-0.149D+00 0.125D+01
 Gap=     0.533 Goal=   None    Shift=    0.000
 RMSDP=9.01D-08 MaxDP=3.00D-06 DE=-3.06D-09 OVMax= 1.07D-05

 Cycle  13  Pass 1  IDiag  1:
 E= -279.505839754954     Delta-E=       -0.000000000353 Rises=F Damp=F
 DIIS: error= 1.72D-07 at cycle  13 NSaved=  13.
 NSaved=13 IEnMin=13 EnMin= -279.505839754954     IErMin=13 ErrMin= 1.72D-07
 ErrMax= 1.72D-07  0.00D+00 EMaxC= 1.00D-01 BMatC= 8.61D-12 BMatP= 9.99D-11
 IDIUse=1 WtCom= 1.00D+00 WtEn= 0.00D+00
 Coeff-Com:  0.147D-05-0.146D-04-0.225D-04-0.123D-03 0.865D-04 0.976D-03
 Coeff-Com: -0.144D-02-0.251D-02-0.457D-03 0.545D-01-0.129D+00-0.170D+00
 Coeff-Com:  0.125D+01
 Coeff:      0.147D-05-0.146D-04-0.225D-04-0.123D-03 0.865D-04 0.976D-03
 Coeff:     -0.144D-02-0.251D-02-0.457D-03 0.545D-01-0.129D+00-0.170D+00
 Coeff:      0.125D+01
 Gap=     0.533 Goal=   None    Shift=    0.000
 RMSDP=2.48D-08 MaxDP=7.47D-07 DE=-3.53D-10 OVMax= 2.31D-06

 Cycle  14  Pass 1  IDiag  1:
 E= -279.505839754977     Delta-E=       -0.000000000023 Rises=F Damp=F
 DIIS: error= 4.18D-08 at cycle  14 NSaved=  14.
 NSaved=14 IEnMin=14 EnMin= -279.505839754977     IErMin=14 ErrMin= 4.18D-08
 ErrMax= 4.18D-08  0.00D+00 EMaxC= 1.00D-01 BMatC= 5.35D-13 BMatP= 8.61D-12
 IDIUse=1 WtCom= 1.00D+00 WtEn= 0.00D+00
 Coeff-Com: -0.282D-06 0.437D-05 0.893D-05-0.605D-05-0.117D-03 0.824D-04
 Coeff-Com:  0.652D-03-0.395D-03-0.377D-02 0.903D-02 0.173D-01-0.873D-01
 Coeff-Com: -0.427D-01 0.111D+01
 Coeff:     -0.282D-06 0.437D-05 0.893D-05-0.605D-05-0.117D-03 0.824D-04
 Coeff:      0.652D-03-0.395D-03-0.377D-02 0.903D-02 0.173D-01-0.873D-01
 Coeff:     -0.427D-01 0.111D+01
 Gap=     0.533 Goal=   None    Shift=    0.000
 RMSDP=4.74D-09 MaxDP=1.20D-07 DE=-2.34D-11 OVMax= 4.31D-07

 SCF Done:  E(RHF) =  -279.505839755     A.U. after   14 cycles
            NFock= 14  Conv=0.47D-08     -V/T= 2.0022
 KE= 2.788977428997D+02 PE=-9.071990013481D+02 EE= 2.256270515515D+02
 Leave Link  502 at Sun Mar  6 19:35:39 2022, MaxMem= 16106127360 cpu:              56.4 elap:               3.7
 (Enter /sw/contrib/gaussian/g16/B01/g16/l801.exe)
 ExpMin= 2.53D-02 ExpMax= 1.53D+04 ExpMxC= 5.22D+02 IAcc=3 IRadAn=         5 AccDes= 0.00D+00
 HarFok:  IExCor=  205 AccDes= 0.00D+00 IRadAn=         5 IDoV=-2 UseB2=F ITyADJ=14
 ICtDFT= 12500011 ScaDFX=  1.000000  1.000000  1.000000  1.000000
 Largest valence mixing into a core orbital is  2.07D-04
 Largest core mixing into a valence orbital is  3.12D-05
 Range of M.O.s used for correlation:     5   207
 NBasis=   207 NAE=    16 NBE=    16 NFC=     4 NFV=     0
 NROrb=    203 NOA=    12 NOB=    12 NVA=   191 NVB=   191

 **** Warning!!: The largest alpha MO coefficient is  0.17079418D+02

 Leave Link  801 at Sun Mar  6 19:35:39 2022, MaxMem= 16106127360 cpu:               2.0 elap:               0.1
 (Enter /sw/contrib/gaussian/g16/B01/g16/l906.exe)
 Frozen-core derivative calculation, NFC=   4 NFV=   0.
 FulOut=F Deriv=T AODrv=T NAtomX=     5
   MMem=           0  MDisk=          12 MDiskD=          12
  W3Min=      811440 MinDsk=     2425030 NBas6D=         245
 NBas2D=       30762    NTT=       30135    LW2=     7400000
    MDV= 16105571504 MDiskM=      328644 NBas2p=       30759
 Disk-based method using ON**2 memory for 12 occupieds at a time.
 Permanent disk used for amplitudes=    11516536 words.
 Estimated scratch disk usage=   321863743 words.
 IMap=   1   2   3   4   5   6   7   8   9  10  11  12  13  14  15  16
 Actual    scratch disk usage=   310892607 words.
 JobTyp=1 Pass  1:  I=   5 to  16 NPSUse= 28 ParTrn=T ParDer=T DoDerP=T.
 (rs|ai) integrals will be sorted in core.
 Spin components of T(2) and E(2):
     alpha-alpha T2 =       0.3481799491D-01 E2=     -0.1246707105D+00
     alpha-beta  T2 =       0.1843972463D+00 E2=     -0.6998367346D+00
     beta-beta   T2 =       0.3481799491D-01 E2=     -0.1246707105D+00
 The integrals were generated   1 times.
 ANorm=    0.1119836254D+01
 E2 =    -0.9491781556D+00 EUMP2 =    -0.28045501791058D+03
 Leave Link  906 at Sun Mar  6 19:37:15 2022, MaxMem= 16106127360 cpu:            2699.0 elap:              96.5
 (Enter /sw/contrib/gaussian/g16/B01/g16/l1101.exe)
 Using compressed Sx but separate Hx and Fx, NAtomX=     5.
 Will process      6 centers per pass.
 Leave Link 1101 at Sun Mar  6 19:37:16 2022, MaxMem= 16106127360 cpu:               5.3 elap:               0.2
 (Enter /sw/contrib/gaussian/g16/B01/g16/l1102.exe)
 Leave Link 1102 at Sun Mar  6 19:37:16 2022, MaxMem= 16106127360 cpu:               1.4 elap:               0.1
 (Enter /sw/contrib/gaussian/g16/B01/g16/l1110.exe)
 Forming Gx(P) for the SCF density, NAtomX=     5.
 Integral derivatives from FoFJK, PRISM(SPDF).
 Do as many integral derivatives as possible in FoFJK.
 G2DrvN: MDV=   16106126844.
 G2DrvN: will do     6 centers at a time, making    1 passes.
 Calling FoFCou, ICntrl=  3107 FMM=F I1Cent=   0 AccDes= 0.00D+00.
 FoFJK:  IHMeth= 1 ICntrl=    3107 DoSepK=F KAlg= 0 I1Cent=           0 FoldK=F
 IRaf=         0 NMat=       1 IRICut=       1 DoRegI=T DoRafI=F ISym2E= 1 IDoP0=0 IntGTp=1.
 FoFCou: FMM=F IPFlag=           0 FMFlag=      100000 FMFlg1=           0
         NFxFlg=           0 DoJE=F BraDBF=F KetDBF=F FulRan=T
         wScrn=  0.000000 ICntrl=      3107 IOpCl=  0 I1Cent=           0 NGrid=           0
         NMat0=    1 NMatS0=      1 NMatT0=    0 NMatD0=    1 NMtDS0=    0 NMtDT0=    0
 Petite list used in FoFCou.
 End of G2Drv F.D. properties file   721 does not exist.
 End of G2Drv F.D. properties file   722 does not exist.
 End of G2Drv F.D. properties file   788 does not exist.
 Leave Link 1110 at Sun Mar  6 19:37:19 2022, MaxMem= 16106127360 cpu:              86.7 elap:               3.1
 (Enter /sw/contrib/gaussian/g16/B01/g16/l1002.exe)
 Minotr:  Closed shell wavefunction.
          IDoAtm=11111
          Frozen-core window.
          Direct CPHF calculation.
          Differentiating once with respect to electric field.
                with respect to dipole field.
          Differentiating once with respect to nuclear coordinates.
          Requested convergence is 1.0D-08 RMS, and 1.0D-07 maximum.
          Secondary convergence is 1.0D-12 RMS, and 1.0D-12 maximum.
          NewPWx=T KeepS1=T KeepF1=T KeepIn=T MapXYZ=F SortEE=F KeepMc=T.
 Keep R1 ints in memory in symmetry-blocked form, NReq=348888983.
 FoFCou: FMM=F IPFlag=           0 FMFlag=           0 FMFlg1=           0
         NFxFlg=           0 DoJE=F BraDBF=F KetDBF=F FulRan=T
         wScrn=  0.000000 ICntrl=       600 IOpCl=  0 I1Cent=           0 NGrid=           0
         NMat0=    1 NMatS0=  21528 NMatT0=    0 NMatD0=    1 NMtDS0=    0 NMtDT0=    0
 Petite list used in FoFCou.
          MDV=   16106127360 using IRadAn=       1.
          Solving linear equations simultaneously, MaxMat=       0.
          There are    18 degrees of freedom in the 1st order CPHF.  IDoFFX=6 NUNeed=    18.
     15 vectors produced by pass  0 Test12= 1.70D-14 5.56D-09 XBig12= 7.91D+00 1.23D+00.
 AX will form    15 AO Fock derivatives at one time.
     15 vectors produced by pass  1 Test12= 1.70D-14 5.56D-09 XBig12= 1.36D+00 2.38D-01.
     15 vectors produced by pass  2 Test12= 1.70D-14 5.56D-09 XBig12= 6.46D-02 5.74D-02.
     15 vectors produced by pass  3 Test12= 1.70D-14 5.56D-09 XBig12= 1.83D-03 9.89D-03.
     15 vectors produced by pass  4 Test12= 1.70D-14 5.56D-09 XBig12= 3.69D-05 1.21D-03.
     15 vectors produced by pass  5 Test12= 1.70D-14 5.56D-09 XBig12= 4.96D-07 1.15D-04.
     15 vectors produced by pass  6 Test12= 1.70D-14 5.56D-09 XBig12= 4.07D-09 1.21D-05.
     14 vectors produced by pass  7 Test12= 1.70D-14 5.56D-09 XBig12= 3.32D-11 8.75D-07.
      3 vectors produced by pass  8 Test12= 1.70D-14 5.56D-09 XBig12= 2.42D-13 6.73D-08.
      1 vectors produced by pass  9 Test12= 1.70D-14 5.56D-09 XBig12= 1.64D-15 6.84D-09.
 InvSVY:  IOpt=1 It=  1 EMax= 1.33D-15
 Solved reduced A of dimension   123 with    15 vectors.
 FullF1:  Do perturbations      1 to      18.
 Saving first derivative matrices.
 End of Minotr F.D. properties file   721 does not exist.
 End of Minotr F.D. properties file   722 does not exist.
 End of Minotr F.D. properties file   788 does not exist.
 Leave Link 1002 at Sun Mar  6 19:37:22 2022, MaxMem= 16106127360 cpu:              77.6 elap:               2.9
 (Enter /sw/contrib/gaussian/g16/B01/g16/l811.exe)
 MDV= 16106127360.
 Form MO integral derivatives with frozen-active canonical formalism.
 MOERI=1 MOERIx=1 NAtoms=     5 NAtomX=     5.
 Discarding MO integrals.
 MO basis two electron integral derivatives will not be stored on disk.
 IAlg= 3 DoFC=T DoPWx=T Debug=F.
 Frozen-core window:  NFC=   4 NFV=   0.
 Reordered first order wavefunction length =     18678272
 In DefCFB: NBatch=  1 ICI= 16 ICA=191 LFMax= 96
            Large arrays: LIAPS=   619940160 LIARS=   288257200 words.
 In StABat: MaxSiz= 55 MinSiz= 25 NAtomB=  5
 DoIAMN: NPSUse= 28.
 Leave Link  811 at Sun Mar  6 19:38:42 2022, MaxMem= 16106127360 cpu:            2253.1 elap:              80.6
 (Enter /sw/contrib/gaussian/g16/B01/g16/l804.exe)
 Frozen-core window:  NFC=   4 NFV=   0.
 Closed-shell transformation, MDV= 16106127360 ITran=4 ISComp=1.
 Semi-Direct transformation.
 ModeAB=           2 MOrb=            16 LenV=   16104919799
 LASXX=     67341636 LTotXX=    67341636 LenRXX=    67341636
 LTotAB=    68301760 MaxLAS=    99807120 LenRXY=    99807120
 NonZer=   134683272 LenScr=   202817536 LnRSAI=           0
 LnScr1=           0 LExtra=           0 Total=    369966292
 MaxDsk=          -1 SrtSym=           F ITran=            4
 DoSDTr:  NPSUse= 28
 JobTyp=0 Pass  1:  I=   1 to  16.
 (rs|ai) integrals will be sorted in core.
 Complete sort for first half transformation.
 First half transformation complete.
 Begin second half transformation for I=  10.
 Begin second half transformation for I=  10.
 Complete sort for second half transformation.
 Second half transformation complete.
 Spin components of T(2) and E(2):
     alpha-alpha T2 =       0.3481799491D-01 E2=     -0.1246707105D+00
     alpha-beta  T2 =       0.1843972463D+00 E2=     -0.6998367346D+00
     beta-beta   T2 =       0.3481799491D-01 E2=     -0.1246707105D+00
 ANorm=    0.1583687618D+01
 E2 =    -0.9491781556D+00 EUMP2 =    -0.28045501791058D+03
 Leave Link  804 at Sun Mar  6 19:38:58 2022, MaxMem= 16106127360 cpu:             444.6 elap:              15.9
 (Enter /sw/contrib/gaussian/g16/B01/g16/l1002.exe)
 Minotr:  Closed shell wavefunction.
          Computing MP2/KS-MP2 derivatives.
          Using Z-Vector for PSCF gradient.
          Skipping F1 and S1 gradient terms here.
          IDoAtm=11111
          Frozen-core window.
          Using MO integrals in the linear equations.
          Forming densities via direct SCF.
          Differentiating once with respect to electric field.
                with respect to dipole field.
          Differentiating once with respect to nuclear coordinates.
          Using symmetry in CPHF.
          Requested convergence is 1.0D-10 RMS, and 1.0D-09 maximum.
          NewPWx=F KeepS1=T KeepF1=T KeepIn=T MapXYZ=F SortEE=F KeepMc=T.
          MDV=   16106127360 using IRadAn=       5.
          Solving linear equations separately, MaxMat=       0.
          There are     1 degrees of freedom in the 1st order CPHF.  IDoFFX=0 NUNeed=     1.
 FoFJK:  IHMeth= 1 ICntrl=       0 DoSepK=F KAlg= 0 I1Cent=           0 FoldK=F
 IRaf=         0 NMat=       1 IRICut=       1 DoRegI=T DoRafI=F ISym2E= 0 IDoP0=0 IntGTp=1.
 FoFCou: FMM=F IPFlag=           0 FMFlag=      100000 FMFlg1=           0
         NFxFlg=           0 DoJE=F BraDBF=F KetDBF=F FulRan=T
         wScrn=  0.000000 ICntrl=         0 IOpCl=  0 I1Cent=           0 NGrid=           0
         NMat0=    1 NMatS0=      1 NMatT0=    0 NMatD0=    1 NMtDS0=    0 NMtDT0=    0
 Symmetry not used in FoFCou.
 LinEq1:  Iter=  0 NonCon=     1 RMS=6.61D-03 Max=1.72D-01 NDo=     1
 LinEq1:  Iter=  1 NonCon=     1 RMS=2.01D-03 Max=3.05D-02 NDo=     1
 LinEq1:  Iter=  2 NonCon=     1 RMS=8.92D-04 Max=1.43D-02 NDo=     1
 LinEq1:  Iter=  3 NonCon=     1 RMS=3.79D-04 Max=8.04D-03 NDo=     1
 LinEq1:  Iter=  4 NonCon=     1 RMS=1.37D-04 Max=1.64D-03 NDo=     1
 LinEq1:  Iter=  5 NonCon=     1 RMS=7.59D-05 Max=1.40D-03 NDo=     1
 LinEq1:  Iter=  6 NonCon=     1 RMS=2.43D-05 Max=2.96D-04 NDo=     1
 LinEq1:  Iter=  7 NonCon=     1 RMS=8.38D-06 Max=1.16D-04 NDo=     1
 LinEq1:  Iter=  8 NonCon=     1 RMS=4.02D-06 Max=6.15D-05 NDo=     1
 LinEq1:  Iter=  9 NonCon=     1 RMS=1.05D-06 Max=1.14D-05 NDo=     1
 LinEq1:  Iter= 10 NonCon=     1 RMS=2.34D-07 Max=2.85D-06 NDo=     1
 LinEq1:  Iter= 11 NonCon=     1 RMS=5.07D-08 Max=6.95D-07 NDo=     1
 LinEq1:  Iter= 12 NonCon=     1 RMS=1.20D-08 Max=1.71D-07 NDo=     1
 LinEq1:  Iter= 13 NonCon=     1 RMS=2.11D-09 Max=2.39D-08 NDo=     1
 LinEq1:  Iter= 14 NonCon=     1 RMS=4.43D-10 Max=5.67D-09 NDo=     1
 LinEq1:  Iter= 15 NonCon=     1 RMS=9.00D-11 Max=1.00D-09 NDo=     1
 LinEq1:  Iter= 16 NonCon=     0 RMS=1.61D-11 Max=2.59D-10 NDo=     1
 Linear equations converged to 1.000D-10 1.000D-09 after    16 iterations.
 End of Minotr F.D. properties file   721 does not exist.
 End of Minotr F.D. properties file   722 does not exist.
 End of Minotr F.D. properties file   788 does not exist.
 Leave Link 1002 at Sun Mar  6 19:39:01 2022, MaxMem= 16106127360 cpu:              66.0 elap:               2.4
 (Enter /sw/contrib/gaussian/g16/B01/g16/l1102.exe)
 Use density number 2.
 Symmetrizing basis deriv contribution to polar:
 IMax=3 JMax=2 DiffMx= 0.00D+00
 Leave Link 1102 at Sun Mar  6 19:39:02 2022, MaxMem= 16106127360 cpu:              22.9 elap:               0.9
 (Enter /sw/contrib/gaussian/g16/B01/g16/l1110.exe)
 Forming Gx(P) for generalized density number  2 NAtomX=     5.
 Integral derivatives from FoFJK, PRISM(SPDF).
 Do as many integral derivatives as possible in FoFJK.
 G2DrvN: MDV=   16106126844.
 G2DrvN: will do     6 centers at a time, making    1 passes.
 Calling FoFCou, ICntrl=  3107 FMM=F I1Cent=   0 AccDes= 0.00D+00.
 FoFJK:  IHMeth= 1 ICntrl=    3107 DoSepK=F KAlg= 0 I1Cent=           0 FoldK=F
 IRaf=         0 NMat=       1 IRICut=       1 DoRegI=T DoRafI=F ISym2E= 1 IDoP0=0 IntGTp=1.
 FoFCou: FMM=F IPFlag=           0 FMFlag=      100000 FMFlg1=           0
         NFxFlg=           0 DoJE=F BraDBF=F KetDBF=F FulRan=T
         wScrn=  0.000000 ICntrl=      3107 IOpCl=  0 I1Cent=           0 NGrid=           0
         NMat0=    1 NMatS0=      1 NMatT0=    0 NMatD0=    1 NMtDS0=    0 NMtDT0=    0
 Petite list used in FoFCou.
 End of G2Drv F.D. properties file   721 does not exist.
 End of G2Drv F.D. properties file   722 does not exist.
 End of G2Drv F.D. properties file   788 does not exist.
 Leave Link 1110 at Sun Mar  6 19:39:05 2022, MaxMem= 16106127360 cpu:              87.4 elap:               3.1
 (Enter /sw/contrib/gaussian/g16/B01/g16/l1112.exe)
 MP22nd: MDV=   16106127360
 This link is doing NAtomX=     5 total of    18 degrees of freedom.
 Using ON3 I/O method in MakUI.
 Frozen-core window:  NFC=   4 NFV=   0.
 Using Ix for Sx.
 Use MO integrals over full window.
 Using OV2 memory method for fx*t*t/D, MaxI=    16 DoOO2=F NP=  28.
 R2 and R3 integrals will be kept in memory, NReq=   915591705.
 FoFCou: FMM=F IPFlag=           0 FMFlag=           0 FMFlg1=           0
         NFxFlg=           0 DoJE=F BraDBF=F KetDBF=F FulRan=T
         wScrn=  0.000000 ICntrl=       600 IOpCl=  0 I1Cent=           0 NGrid=           0
         NMat0=    1 NMatS0=      1 NMatT0=    0 NMatD0=    1 NMtDS0=    0 NMtDT0=    0
 Symmetry not used in FoFCou.
 DD1Dir will call FoFMem   1 times, MxPair=       272
 NAB=   136 NAA=     0 NBB=     0.
 Symmetry is being used.
 FoFJK:  IHMeth= 1 ICntrl=       0 DoSepK=F KAlg= 0 I1Cent=           0 FoldK=F
 IRaf=         0 NMat=      18 IRICut=      45 DoRegI=T DoRafI=T ISym2E= 2 IDoP0=3 IntGTp=3.
 Discarding MO integrals.
 Leave Link 1112 at Sun Mar  6 19:39:46 2022, MaxMem= 16106127360 cpu:            1132.3 elap:              41.0
 (Enter /sw/contrib/gaussian/g16/B01/g16/l601.exe)
 Copying SCF densities to generalized density rwf, IOpCl= 0 IROHF=0.

 **********************************************************************

            Population analysis using the MP2 Density.

 **********************************************************************

 Orbital symmetries:
       Occupied  (A') (A') (A') (A') (A') (A') (A') (A') (A') (A')
                 (A") (A') (A') (A") (A') (A")
       Virtual   (A') (A") (A') (A') (A") (A') (A') (A') (A") (A')
                 (A") (A') (A') (A') (A") (A') (A') (A") (A') (A')
                 (A') (A') (A') (A') (A") (A') (A') (A") (A') (A')
                 (A') (A") (A") (A') (A') (A') (A") (A') (A") (A')
                 (A") (A") (A') (A') (A") (A') (A') (A") (A') (A')
                 (A') (A") (A') (A') (A") (A') (A") (A') (A') (A")
                 (A') (A') (A") (A') (A') (A") (A') (A") (A') (A')
                 (A") (A') (A") (A") (A') (A') (A") (A') (A') (A')
                 (A") (A') (A') (A") (A') (A") (A") (A') (A') (A')
                 (A') (A') (A") (A") (A') (A') (A") (A") (A') (A")
                 (A') (A') (A") (A') (A") (A') (A') (A') (A") (A")
                 (A') (A') (A') (A') (A") (A') (A') (A') (A") (A')
                 (A") (A') (A") (A') (A") (A") (A") (A') (A') (A')
                 (A') (A') (A") (A') (A') (A") (A") (A') (A') (A')
                 (A") (A") (A') (A') (A') (A") (A') (A') (A') (A")
                 (A') (A') (A') (A") (A') (A") (A") (A') (A') (A")
                 (A') (A") (A') (A") (A") (A') (A") (A') (A") (A")
                 (A') (A") (A") (A') (A') (A") (A') (A') (A") (A')
                 (A') (A') (A') (A') (A') (A') (A') (A') (A') (A')
                 (A')
 The electronic state is 1-A'.
 Alpha  occ. eigenvalues --  -20.72172 -20.68822 -20.66598 -15.82603  -1.64665
 Alpha  occ. eigenvalues --   -1.50491  -1.29370  -0.96062  -0.83805  -0.75976
 Alpha  occ. eigenvalues --   -0.74125  -0.63554  -0.61959  -0.61781  -0.50579
 Alpha  occ. eigenvalues --   -0.49797
 Alpha virt. eigenvalues --    0.03538   0.05951   0.09499   0.09985   0.11969
 Alpha virt. eigenvalues --    0.12279   0.14992   0.15301   0.17736   0.17989
 Alpha virt. eigenvalues --    0.18959   0.21096   0.21672   0.24439   0.24617
 Alpha virt. eigenvalues --    0.26923   0.31515   0.31912   0.33814   0.34154
 Alpha virt. eigenvalues --    0.34629   0.39437   0.45153   0.48970   0.50553
 Alpha virt. eigenvalues --    0.51750   0.54547   0.56063   0.59746   0.61992
 Alpha virt. eigenvalues --    0.63925   0.69076   0.71639   0.72316   0.74514
 Alpha virt. eigenvalues --    0.76681   0.76833   0.79594   0.80882   0.83775
 Alpha virt. eigenvalues --    0.84223   0.85257   0.88531   0.90913   0.93318
 Alpha virt. eigenvalues --    0.94724   0.95530   1.01811   1.03544   1.06752
 Alpha virt. eigenvalues --    1.07543   1.09956   1.15014   1.15674   1.16994
 Alpha virt. eigenvalues --    1.22245   1.23004   1.24493   1.35030   1.36203
 Alpha virt. eigenvalues --    1.36926   1.46949   1.48585   1.50275   1.54756
 Alpha virt. eigenvalues --    1.59629   1.60253   1.60616   1.63405   1.69603
 Alpha virt. eigenvalues --    1.74141   1.79959   1.82780   1.88806   1.90019
 Alpha virt. eigenvalues --    1.93398   1.98089   1.99343   2.05327   2.11968
 Alpha virt. eigenvalues --    2.13428   2.16785   2.19331   2.24612   2.26356
 Alpha virt. eigenvalues --    2.29269   2.36080   2.37350   2.38402   2.40650
 Alpha virt. eigenvalues --    2.43783   2.47137   2.48374   2.53318   2.54065
 Alpha virt. eigenvalues --    2.55463   2.56223   2.62126   2.63465   2.67688
 Alpha virt. eigenvalues --    2.68167   2.75527   2.80894   2.82672   2.83922
 Alpha virt. eigenvalues --    2.92380   2.98623   3.04798   3.05814   3.11003
 Alpha virt. eigenvalues --    3.12053   3.19214   3.21653   3.30916   3.33228
 Alpha virt. eigenvalues --    3.35484   3.48551   3.67010   3.87136   3.94733
 Alpha virt. eigenvalues --    4.19332   4.22778   4.23825   4.28035   4.37685
 Alpha virt. eigenvalues --    4.49559   4.55490   4.56497   4.60226   4.68563
 Alpha virt. eigenvalues --    4.80703   4.89511   4.91597   4.94422   4.99952
 Alpha virt. eigenvalues --    5.00399   5.10491   5.14172   5.17470   5.25554
 Alpha virt. eigenvalues --    5.25931   5.31947   5.35360   5.39485   5.54001
 Alpha virt. eigenvalues --    5.64391   5.71024   5.89327   5.99297   6.26163
 Alpha virt. eigenvalues --    6.29473   6.36001   6.37609   6.60084   6.66153
 Alpha virt. eigenvalues --    6.66898   6.70064   6.72314   6.79137   6.80466
 Alpha virt. eigenvalues --    6.85899   6.96868   7.01950   7.06618   7.07963
 Alpha virt. eigenvalues --    7.14018   7.17462   7.19875   7.20646   7.24772
 Alpha virt. eigenvalues --    7.24884   7.27420   7.35563   7.40223   7.43118
 Alpha virt. eigenvalues --    7.44116   7.46214   7.56793   7.66121   7.68764
 Alpha virt. eigenvalues --    7.79356   7.88783   7.96140   8.09452   8.31726
 Alpha virt. eigenvalues --    8.50945   8.64890  13.64026  14.72880  15.14425
 Alpha virt. eigenvalues --   15.83587
          Condensed to atoms (all electrons):
               1          2          3          4          5
     1  H    0.584449   0.120983   0.023469   0.001714  -0.002972
     2  O    0.120983   8.395294  -0.225499  -0.001009  -0.013454
     3  O    0.023469  -0.225499   8.367489  -0.171650  -0.031375
     4  N    0.001714  -0.001009  -0.171650   7.139939  -0.126162
     5  O   -0.002972  -0.013454  -0.031375  -0.126162   8.364733
 Mulliken charges:
               1
     1  H    0.272356
     2  O   -0.276315
     3  O    0.037564
     4  N    0.157167
     5  O   -0.190771
 Sum of Mulliken charges =  -0.00000
 Mulliken charges with hydrogens summed into heavy atoms:
               1
     2  O   -0.003960
     3  O    0.037564
     4  N    0.157167
     5  O   -0.190771
 APT charges:
               1
     1  H    0.276408
     2  O   -0.302737
     3  O   -0.309624
     4  N    0.638109
     5  O   -0.302157
 Sum of APT charges =  -0.00000
 APT charges with hydrogens summed into heavy atoms:
               1
     2  O   -0.026329
     3  O   -0.309624
     4  N    0.638109
     5  O   -0.302157
 Electronic spatial extent (au):  <R**2>=            205.0789
 Charge=             -0.0000 electrons
 Dipole moment (field-independent basis, Debye):
    X=              0.0004    Y=             -1.0791    Z=              0.0000  Tot=              1.0791
 Quadrupole moment (field-independent basis, Debye-Ang):
   XX=            -23.5085   YY=            -22.8313   ZZ=            -21.9274
   XY=             -1.9381   XZ=              0.0000   YZ=              0.0000
 Traceless Quadrupole moment (field-independent basis, Debye-Ang):
   XX=             -0.7528   YY=             -0.0756   ZZ=              0.8284
   XY=             -1.9381   XZ=              0.0000   YZ=              0.0000
 Octapole moment (field-independent basis, Debye-Ang**2):
  XXX=              2.3824  YYY=              0.2322  ZZZ=              0.0000  XYY=              2.3572
  XXY=             -2.7281  XXZ=              0.0000  XZZ=             -0.5837  YZZ=             -0.6945
  YYZ=              0.0000  XYZ=              0.0000
 Hexadecapole moment (field-independent basis, Debye-Ang**3):
 XXXX=           -125.4110 YYYY=            -94.2363 ZZZZ=            -18.0369 XXXY=            -20.6086
 XXXZ=              0.0000 YYYX=            -19.0241 YYYZ=              0.0000 ZZZX=              0.0000
 ZZZY=              0.0000 XXYY=            -35.1178 XXZZ=            -23.9928 YYZZ=            -18.5072
 XXYZ=              0.0000 YYXZ=              0.0000 ZZXY=             -5.6394
 N-N= 1.231683671419D+02 E-N=-9.078833494767D+02  KE= 2.802129722195D+02
 Symmetry A'   KE= 2.663681836790D+02
 Symmetry A"   KE= 1.384478854046D+01
  Exact polarizability:  30.615   3.994  29.746   0.000   0.000  17.588
 Approx polarizability:  24.369   0.382  27.679  -0.000  -0.000  15.496
 No NMR shielding tensors so no spin-rotation constants.
 Leave Link  601 at Sun Mar  6 19:39:46 2022, MaxMem= 16106127360 cpu:               4.3 elap:               0.2
 (Enter /sw/contrib/gaussian/g16/B01/g16/l701.exe)
 ... and contract with generalized density number  2.
 Compute integral second derivatives.
 Leave Link  701 at Sun Mar  6 19:39:46 2022, MaxMem= 16106127360 cpu:               5.9 elap:               0.2
 (Enter /sw/contrib/gaussian/g16/B01/g16/l702.exe)
 L702 exits ... SP integral derivatives will be done elsewhere.
 Leave Link  702 at Sun Mar  6 19:39:47 2022, MaxMem= 16106127360 cpu:               0.7 elap:               0.0
 (Enter /sw/contrib/gaussian/g16/B01/g16/l703.exe)
 Integral derivatives from FoFJK, PRISM(SPDF).
 Compute integral second derivatives, UseDBF=F ICtDFT=           0.
 Calling FoFJK, ICntrl=  10100127 FMM=F ISym2X=1 I1Cent= 0 IOpClX= 0 NMat=1 NMatS=1 NMatT=0.
 FoFJK:  IHMeth= 1 ICntrl=10100127 DoSepK=F KAlg= 0 I1Cent=           0 FoldK=F
 IRaf=         0 NMat=       1 IRICut=       1 DoRegI=T DoRafI=F ISym2E= 1 IDoP0=0 IntGTp=1.
 FoFCou: FMM=F IPFlag=           0 FMFlag=      100000 FMFlg1=         800
         NFxFlg=           0 DoJE=F BraDBF=F KetDBF=F FulRan=T
         wScrn=  0.000000 ICntrl=  10100127 IOpCl=  0 I1Cent=           0 NGrid=           0
         NMat0=    1 NMatS0=      1 NMatT0=    0 NMatD0=    1 NMtDS0=    0 NMtDT0=    0
 Petite list used in FoFCou.
 Leave Link  703 at Sun Mar  6 19:40:03 2022, MaxMem= 16106127360 cpu:             448.4 elap:              16.1
 (Enter /sw/contrib/gaussian/g16/B01/g16/l716.exe)
 Dipole        = 1.72315213D-04-4.24532934D-01 0.00000000D+00
 Polarizability= 3.06152444D+01 3.99395829D+00 2.97460451D+01
                 0.00000000D+00 0.00000000D+00 1.75878117D+01
 Full mass-weighted force constant matrix:
 Low frequencies ---  -53.4263  -32.1068   -0.0015    0.0006    0.0016   47.8254
 Low frequencies ---  351.4740  432.4749  531.0313
 Diagonal vibrational polarizability:
        7.0391477       9.8779669      15.9037714
 Harmonic frequencies (cm**-1), IR intensities (KM/Mole), Raman scattering
 activities (A**4/AMU), depolarization ratios for plane and unpolarized
 incident light, reduced masses (AMU), force constants (mDyne/A),
 and normal coordinates:
                      1                      2                      3
                     A"                     A'                     A"
 Frequencies --    351.2530               432.4748               530.9643
 Red. masses --      1.5633                 7.1643                 2.8717
 Frc consts  --      0.1136                 0.7895                 0.4770
 IR Inten    --     62.0220                 7.8837                24.8869
  Atom  AN      X      Y      Z        X      Y      Z        X      Y      Z
     1   1     0.00   0.00   0.98    -0.73  -0.25   0.00     0.00   0.00   0.93
     2   8     0.00   0.00  -0.11    -0.33  -0.31  -0.00     0.00   0.00   0.05
     3   8     0.00   0.00   0.12    -0.06   0.08  -0.00     0.00  -0.00  -0.18
     4   7    -0.00  -0.00  -0.11     0.06   0.09   0.00     0.00   0.00   0.27
     5   8    -0.00  -0.00   0.03     0.39   0.17  -0.00    -0.00  -0.00  -0.17
                      4                      5                      6
                     A'                     A'                     A'
 Frequencies --    708.9392               839.4097               970.3627
 Red. masses --     13.5001                12.6092                10.0478
 Frc consts  --      3.9976                 5.2346                 5.5743
 IR Inten    --    212.4050                33.4667                12.5440
  Atom  AN      X      Y      Z        X      Y      Z        X      Y      Z
     1   1    -0.34   0.01   0.00     0.42  -0.16   0.00    -0.61   0.00   0.00
     2   8    -0.03  -0.08   0.00     0.54  -0.22   0.00     0.18  -0.17   0.00
     3   8     0.38   0.59  -0.00    -0.39   0.01  -0.00    -0.35   0.42  -0.00
     4   7    -0.40  -0.46   0.00    -0.43  -0.07   0.00     0.40   0.05   0.00
     5   8     0.01  -0.10  -0.00     0.20   0.28  -0.00    -0.13  -0.29  -0.00
                      7                      8                      9
                     A'                     A'                     A'
 Frequencies --   1438.9997              1577.1163              3474.7844
 Red. masses --      1.3412                 5.4363                 1.0635
 Frc consts  --      1.6363                 7.9667                 7.5655
 IR Inten    --     82.4252               147.2334                48.7932
  Atom  AN      X      Y      Z        X      Y      Z        X      Y      Z
     1   1     0.96  -0.22  -0.00     0.80  -0.20  -0.00     0.17   0.98   0.00
     2   8    -0.07  -0.05  -0.00    -0.02  -0.02  -0.00    -0.01  -0.06  -0.00
     3   8    -0.03   0.05   0.00     0.03   0.06   0.00     0.00  -0.00   0.00
     4   7     0.07  -0.06  -0.00    -0.22   0.36  -0.00    -0.00   0.00   0.00
     5   8    -0.03   0.06   0.00     0.14  -0.34   0.00     0.00  -0.00  -0.00

 -------------------
 - Thermochemistry -
 -------------------
 Temperature   298.150 Kelvin.  Pressure   1.00000 Atm.
 Atom     1 has atomic number  1 and mass   1.00783
 Atom     2 has atomic number  8 and mass  15.99491
 Atom     3 has atomic number  8 and mass  15.99491
 Atom     4 has atomic number  7 and mass  14.00307
 Atom     5 has atomic number  8 and mass  15.99491
 Molecular mass:    62.99564 amu.
 Principal axes and moments of inertia in atomic units:
                           1         2         3
     Eigenvalues --    85.69783 217.37171 303.06954
           X            0.79343  -0.60867   0.00000
           Y            0.60867   0.79343   0.00000
           Z            0.00000   0.00000   1.00000
 This molecule is an asymmetric top.
 Rotational symmetry number  1.
 Rotational temperatures (Kelvin)      1.01069     0.39846     0.28579
 Rotational constants (GHZ):          21.05936     8.30256     5.95487
 Zero-point vibrational energy      61753.1 (Joules/Mol)
                                   14.75933 (Kcal/Mol)
 Warning -- explicit consideration of   3 degrees of freedom as
           vibrations may cause significant error
 Vibrational temperatures:    505.37   622.23   763.94  1020.01  1207.72
          (Kelvin)           1396.14  2070.40  2269.12  4999.44
 
 Zero-point correction=                           0.023520 (Hartree/Particle)
 Thermal correction to Energy=                    0.027422
 Thermal correction to Enthalpy=                  0.028366
 Thermal correction to Gibbs Free Energy=        -0.002417
 Sum of electronic and zero-point Energies=           -280.431497
 Sum of electronic and thermal Energies=              -280.427596
 Sum of electronic and thermal Enthalpies=            -280.426651
 Sum of electronic and thermal Free Energies=         -280.457435
 
                     E (Thermal)             CV                S
                      KCal/Mol        Cal/Mol-Kelvin    Cal/Mol-Kelvin
 Total                   17.208             12.076             64.789
 Electronic               0.000              0.000              0.000
 Translational            0.889              2.981             38.341
 Rotational               0.889              2.981             23.250
 Vibrational             15.430              6.114              3.199
 Vibration     1          0.728              1.573              1.161
 Vibration     2          0.793              1.399              0.851
 Vibration     3          0.886              1.181              0.585
                       Q            Log10(Q)             Ln(Q)
 Total Bot       0.129319D+02          1.111662          2.559695
 Total V=0       0.851783D+12         11.930329         27.470597
 Vib (Bot)       0.244646D-10        -10.611461        -24.433793
 Vib (Bot)    1  0.524833D+00         -0.279979         -0.644675
 Vib (Bot)    2  0.402108D+00         -0.395657         -0.911035
 Vib (Bot)    3  0.300934D+00         -0.521529         -1.200866
 Vib (V=0)       0.161141D+01          0.207206          0.477109
 Vib (V=0)    1  0.122488D+01          0.088093          0.202842
 Vib (V=0)    2  0.114163D+01          0.057526          0.132458
 Vib (V=0)    3  0.108358D+01          0.034859          0.080267
 Electronic      0.100000D+01          0.000000          0.000000
 Translational   0.196526D+08          7.293420         16.793719
 Rotational      0.268970D+05          4.429703         10.199768
 
                                                                title
                                                             IR Spectrum
 
     3                                                                     1    1                                                    
     4                                                                     5    4                9    8    7     5   4  3            
     7                                                                     7    3                7    3    0     3   3  5            
     5                                                                     7    9                0    9    9     1   2  1            
 
     X                                                                     X    X                X    X    X     X   X  X            
     X                                                                     X    X                     X    X     X      X            
     X                                                                     X    X                     X    X            X            
     X                                                                     X    X                          X            X            
     X                                                                     X    X                          X            X            
                                                                           X    X                          X            X            
                                                                           X    X                          X                         
                                                                           X    X                          X                         
                                                                           X                               X                         
                                                                           X                               X                         
                                                                           X                               X                         
                                                                           X                               X                         
                                                                           X                               X                         
                                                                           X                               X                         
                                                                                                           X                         
                                                                                                           X                         
                                                                                                           X                         
                                                                                                           X                         
                                                                                                           X                         
                                                                                                           X                         
 
 ***** Axes restored to original set *****
 -------------------------------------------------------------------
 Center     Atomic                   Forces (Hartrees/Bohr)
 Number     Number              X              Y              Z
 -------------------------------------------------------------------
      1        1           0.000085280   -0.000000000   -0.000352573
      2        8          -0.002081816   -0.000000000    0.006065974
      3        8          -0.003901515   -0.000000000   -0.006232828
      4        7           0.005404833   -0.000000000    0.001557039
      5        8           0.000493218   -0.000000000   -0.001037611
 -------------------------------------------------------------------
 Cartesian Forces:  Max     0.006232828 RMS     0.002924472
 -----------------------------------------------------------------------------------------------
                       Internal Coordinate Forces (Hartree/Bohr or radian)
  Cent   Atom   N1       Length/X         N2         Alpha/Y        N3         Beta/Z          J
 -----------------------------------------------------------------------------------------------
      1  H 
      2  O        1   0.000353(     1)
      3  O        2   0.000908(     2)      1  -0.000159(     5)
      4  N        3   0.002700(     3)      2   0.015974(     6)      1   0.000000(     8)     0
      5  O        4   0.000593(     4)      3   0.002222(     7)      2   0.000000(     9)     0
 -----------------------------------------------------------------------------------------------
 Internal  Forces:  Max     0.015974005 RMS     0.005464242
 Force constants in Cartesian coordinates: 
                1             2             3             4             5 
      1  0.738301D-01
      2  0.000000D+00  0.617841D-02
      3  0.254412D-01  0.000000D+00  0.433416D+00
      4 -0.522075D-01  0.000000D+00 -0.453679D-02  0.283598D+00
      5  0.000000D+00 -0.209503D-02  0.000000D+00  0.000000D+00  0.118957D-01
      6  0.303480D-01  0.000000D+00 -0.415913D+00 -0.187675D-01  0.000000D+00
      7 -0.247823D-01  0.000000D+00 -0.169019D-01 -0.168331D+00  0.000000D+00
      8  0.000000D+00 -0.462412D-02  0.000000D+00  0.000000D+00 -0.208188D-01
      9 -0.418643D-01  0.000000D+00 -0.214360D-01  0.127843D-01  0.000000D+00
     10 -0.780712D-02  0.000000D+00  0.680272D-02 -0.872750D-01  0.000000D+00
     11  0.000000D+00  0.855229D-02  0.000000D+00  0.000000D+00  0.212436D-01
     12 -0.211791D-01  0.000000D+00  0.137560D-01  0.149294D-01  0.000000D+00
     13  0.109669D-01  0.000000D+00 -0.108053D-01  0.242161D-01  0.000000D+00
     14  0.000000D+00 -0.801155D-02  0.000000D+00  0.000000D+00 -0.102255D-01
     15  0.725416D-02  0.000000D+00 -0.982316D-02 -0.440942D-02  0.000000D+00
                6             7             8             9            10 
      6  0.523201D+00
      7 -0.906966D-01  0.302864D+00
      8  0.000000D+00  0.000000D+00  0.442259D-01
      9 -0.934032D-01  0.808305D-01  0.000000D+00  0.309419D+00
     10  0.413990D-01 -0.143589D+00  0.000000D+00 -0.308963D-01  0.575123D+00
     11  0.000000D+00  0.000000D+00 -0.488110D-01  0.000000D+00  0.000000D+00
     12 -0.158165D-01  0.207183D-01  0.000000D+00 -0.212634D-01  0.240561D+00
     13  0.377171D-01  0.338381D-01  0.000000D+00 -0.208542D-01 -0.336453D+00
     14  0.000000D+00  0.000000D+00  0.300280D-01  0.000000D+00  0.000000D+00
     15  0.193087D-02  0.604973D-02  0.000000D+00 -0.173317D+00 -0.257866D+00
               11            12            13            14            15 
     11  0.568344D-01
     12  0.000000D+00  0.433703D+00
     13  0.000000D+00 -0.255029D+00  0.267431D+00
     14 -0.378193D-01  0.000000D+00  0.000000D+00  0.260284D-01
     15  0.000000D+00 -0.410379D+00  0.248972D+00  0.000000D+00  0.591588D+00
 Force constants in internal coordinates: 
                1             2             3             4             5 
      1  0.433416D+00
      2  0.237757D-01  0.260430D+00
      3  0.546002D-02  0.195731D-01  0.215704D+00
      4 -0.141552D-01  0.229433D-01  0.149313D+00  0.722019D+00
      5  0.474590D-01  0.587446D-01 -0.250815D-01  0.225352D-01  0.256654D+00
      6  0.114808D-01  0.338503D-01  0.117641D+00  0.114583D-01  0.141301D-02
      7  0.810250D-02 -0.727862D-01  0.137528D+00  0.116221D+00 -0.216162D-01
      8  0.000000D+00  0.000000D+00  0.000000D+00  0.000000D+00  0.000000D+00
      9  0.000000D+00  0.000000D+00  0.000000D+00  0.000000D+00  0.000000D+00
                6             7             8             9 
      6  0.601837D+00
      7  0.107511D+00  0.699736D+00
      8  0.000000D+00  0.000000D+00  0.213561D-01
      9  0.000000D+00  0.000000D+00  0.301633D-01  0.110435D+00
 Leave Link  716 at Sun Mar  6 19:40:03 2022, MaxMem= 16106127360 cpu:               1.7 elap:               0.1
 (Enter /sw/contrib/gaussian/g16/B01/g16/l103.exe)

 GradGradGradGradGradGradGradGradGradGradGradGradGradGradGradGradGradGrad
 Berny optimization.
 Search for a local minimum.
 Step number   1 out of a maximum of    2
 All quantities printed in internal units (Hartrees-Bohrs-Radians)
 Second derivative matrix not updated -- analytic derivatives used.
 The second derivative matrix:
                          r1        r2        r3        r4        a1
           r1           0.43342
           r2           0.02378   0.26043
           r3           0.00546   0.01957   0.21570
           r4          -0.01416   0.02294   0.14931   0.72202
           a1           0.04746   0.05874  -0.02508   0.02254   0.25665
           a2           0.01148   0.03385   0.11764   0.01146   0.00141
           a3           0.00810  -0.07279   0.13753   0.11622  -0.02162
           d1           0.00000   0.00000   0.00000   0.00000   0.00000
           d2           0.00000   0.00000   0.00000   0.00000   0.00000
                          a2        a3        d1        d2
           a2           0.60184
           a3           0.10751   0.69974
           d1           0.00000   0.00000   0.02136
           d2           0.00000   0.00000   0.03016   0.11044
 ITU=  0
     Eigenvalues ---    0.01210   0.11969   0.12276   0.20587   0.27744
     Eigenvalues ---    0.44853   0.54758   0.65721   0.93040
 Angle between quadratic step and forces=  18.36 degrees.
 Linear search not attempted -- first point.
 Variable       Old X    -DE/DX   Delta X   Delta X   Delta X     New X
                                 (Linear)    (Quad)   (Total)
    r1        1.86209   0.00035   0.00000   0.00031   0.00031   1.86240
    r2        2.69614   0.00091   0.00000   0.00015   0.00015   2.69629
    r3        2.60992   0.00270   0.00000  -0.00283  -0.00283   2.60708
    r4        2.25782   0.00059   0.00000   0.00112   0.00112   2.25895
    a1        1.75642  -0.00016   0.00000  -0.00129  -0.00129   1.75513
    a2        1.94658   0.01597   0.00000   0.02718   0.02718   1.97376
    a3        1.99550   0.00222   0.00000  -0.00066  -0.00066   1.99484
    d1        0.00000   0.00000   0.00000   0.00000   0.00000   0.00000
    d2        0.00000   0.00000   0.00000   0.00000   0.00000   0.00000
         Item               Value     Threshold  Converged?
 Maximum Force            0.015974     0.000450     NO 
 RMS     Force            0.005464     0.000300     NO 
 Maximum Displacement     0.027181     0.001800     NO 
 RMS     Displacement     0.009131     0.001200     NO 
 Predicted change in Energy=-2.130958D-04
                       ----------------------------
                       ! Non-Optimized Parameters !
                       ! (Angstroms and Degrees)  !
 ----------------------                            ----------------------
 !      Name          Value   Derivative information (Atomic Units)     !
 ------------------------------------------------------------------------
 !       r1          0.9855   -DE/DX =    0.0004                        !
 !       r2          1.4268   -DE/DX =    0.0009                        !
 !       r3          1.3796   -DE/DX =    0.0027                        !
 !       r4          1.1954   -DE/DX =    0.0006                        !
 !       a1        100.5615   -DE/DX =   -0.0002                        !
 !       a2        113.0882   -DE/DX =    0.016                         !
 !       a3        114.2961   -DE/DX =    0.0022                        !
 !       d1          0.0      -DE/DX =    0.0                           !
 !       d2          0.0      -DE/DX =    0.0                           !
 ------------------------------------------------------------------------
 GradGradGradGradGradGradGradGradGradGradGradGradGradGradGradGradGradGrad

 Leave Link  103 at Sun Mar  6 19:40:03 2022, MaxMem= 16106127360 cpu:               0.5 elap:               0.0
 (Enter /sw/contrib/gaussian/g16/B01/g16/l9999.exe)

 ----------------------------------------------------------------------

 Electric dipole moment (input orientation):
 (Debye = 10**-18 statcoulomb cm , SI units = C m)
                  (au)            (Debye)         (10**-30 SI)
   Tot        0.424533D+00      0.107906D+01      0.359934D+01
   x         -0.984234D-01     -0.250167D+00     -0.834469D+00
   y          0.000000D+00      0.000000D+00      0.000000D+00
   z         -0.412966D+00     -0.104966D+01     -0.350127D+01

 Dipole polarizability, Alpha (input orientation).
 (esu units = cm**3 , SI units = C**2 m**2 J**-1)
 Alpha(0;0):
               (au)            (10**-24 esu)      (10**-40 SI)
   iso        0.259830D+02      0.385029D+01      0.428402D+01
   aniso      0.143875D+02      0.213201D+01      0.237218D+01
   xx         0.287701D+02      0.426329D+01      0.474355D+01
   yx         0.000000D+00      0.000000D+00      0.000000D+00
   yy         0.175878D+02      0.260624D+01      0.289984D+01
   zx        -0.376178D+01     -0.557439D+00     -0.620234D+00
   zy         0.000000D+00      0.000000D+00      0.000000D+00
   zz         0.315912D+02      0.468133D+01      0.520868D+01

 ----------------------------------------------------------------------

 Dipole orientation:
     1          0.00000000         -0.00000000         -0.00000000
     8         -0.43170619         -0.00000000         -1.81135759
     8          2.03055838         -0.00000000         -2.90973473
     7          3.89436871         -0.00000000         -1.08275133
     8          3.11865325          0.00000000          1.03763308

 Electric dipole moment (dipole orientation):
 (Debye = 10**-18 statcoulomb cm , SI units = C m)
                  (au)            (Debye)         (10**-30 SI)
   Tot        0.424533D+00      0.107906D+01      0.359934D+01
   x          0.000000D+00      0.000000D+00      0.000000D+00
   y          0.000000D+00      0.000000D+00      0.000000D+00
   z          0.424533D+00      0.107906D+01      0.359934D+01

 Dipole polarizability, Alpha (dipole orientation).
 (esu units = cm**3 , SI units = C**2 m**2 J**-1)
 Alpha(0;0):
               (au)            (10**-24 esu)      (10**-40 SI)
   iso        0.259830D+02      0.385029D+01      0.428402D+01
   aniso      0.143875D+02      0.213201D+01      0.237218D+01
   xx         0.306185D+02      0.453719D+01      0.504831D+01
   yx         0.000000D+00      0.000000D+00      0.000000D+00
   yy         0.175878D+02      0.260624D+01      0.289984D+01
   zx         0.399360D+01      0.591791D+00      0.658456D+00
   zy         0.000000D+00      0.000000D+00      0.000000D+00
   zz         0.297428D+02      0.440743D+01      0.490393D+01

 ----------------------------------------------------------------------
 1\1\GINC-N2110\Freq\RMP2-FC\Aug-CC-pVTZ\H1N1O3\CGAVINH\06-Mar-2022\1\\
 #p freq mp2/aug-cc-pvtz density=current\\title\\0,1\H\O,1,r1\O,2,r2,1,
 a1\N,3,r3,2,a2,1,d1,0\O,4,r4,3,a3,2,d2,0\\r1=0.98537664\r2=1.42673666\
 r3=1.38110764\r4=1.19478846\a1=100.6355057\a2=111.53078939\a3=114.3339
 2022\d1=0.\d2=0.\\Version=ES64L-G16RevB.01\State=1-A'\HF=-279.5058398\
 MP2=-280.4550179\RMSD=4.744e-09\RMSF=2.924e-03\ZeroPoint=0.0235205\The
 rmal=0.0274223\Dipole=-0.0984234,0.,-0.4129662\DipoleDeriv=0.3211619,0
 .,0.0314205,0.,0.2953437,0.,-0.0354735,0.,0.2127182,-0.5148301,0.,0.28
 5154,0.,-0.2564473,0.,-0.0922115,0.,-0.1369323,0.0162257,0.,0.3122623,
 0.,-0.004238,0.,0.4193699,0.,-0.940859,0.1800057,0.,-0.0977316,0.,0.00
 77126,0.,-0.6198542,0.,1.7266089,-0.0025632,0.,-0.5311051,0.,-0.042371
 ,0.,0.3281693,0.,-0.8615358\Polar=28.7701224,0.,17.5878117,-3.7617823,
 0.,31.5911672\Quadrupole=0.1161621,0.6158845,-0.7320466,0.,1.3999363,0
 .\PG=CS [SG(H1N1O3)]\NImag=0\\0.07383008,0.,0.00617841,0.02544124,0.,0
 .43341572,-0.05220755,0.,-0.00453679,0.28359773,0.,-0.00209503,0.,0.,0
 .01189569,0.03034796,0.,-0.41591258,-0.01876748,0.,0.52320136,-0.02478
 234,0.,-0.01690191,-0.16833134,0.,-0.09069662,0.30286435,0.,-0.0046241
 2,0.,0.,-0.02081878,0.,0.,0.04422590,-0.04186429,0.,-0.02143595,0.0127
 8426,0.,-0.09340315,0.08083052,0.,0.30941911,-0.00780712,0.,0.00680272
 ,-0.08727496,0.,0.04139903,-0.14358877,0.,-0.03089626,0.57512339,0.,0.
 00855229,0.,0.,0.02124360,0.,0.,-0.04881098,0.,0.,0.05683443,-0.021179
 07,0.,0.01375598,0.01492943,0.,-0.01581649,0.02071828,0.,-0.02126338,0
 .24056060,0.,0.43370295,0.01096693,0.,-0.01080525,0.02421611,0.,0.0377
 1711,0.03383810,0.,-0.02085423,-0.33645254,0.,-0.25502924,0.26743140,0
 .,-0.00801155,0.,0.,-0.01022548,0.,0.,0.03002798,0.,0.,-0.03781934,0.,
 0.,0.02602838,0.00725416,0.,-0.00982316,-0.00440942,0.,0.00193087,0.00
 604973,0.,-0.17331662,-0.25786609,0.,-0.41037906,0.24897162,0.,0.59158
 798\\-0.00008528,0.,0.00035257,0.00208182,0.,-0.00606597,0.00390152,0.
 ,0.00623283,-0.00540483,0.,-0.00155704,-0.00049322,0.,0.00103761\\\@


 A DANDELION FROM A LOVER MEANS MORE THAN AN ORCHID FROM A FRIEND.
 Job cpu time:       0 days  2 hours  3 minutes 39.8 seconds.
 Elapsed time:       0 days  0 hours  4 minutes 28.5 seconds.
 File lengths (MBytes):  RWF=   7239 Int=      0 D2E=      0 Chk=      8 Scr=      1
 Normal termination of Gaussian 16 at Sun Mar  6 19:40:04 2022.
