title                                                                   
Freq      RMP2-FC                                                     Aug-CC-pVTZ         
Number of atoms                            I                5
Info1-9                                    I   N=           9
          33          24           0           0           0         100
           6           2           1
Full Title                                 C   N=           1
title       
Route                                      C   N=           4
#p freq mp2/aug-cc-pvtz density=current         
Charge                                     I                0
Multiplicity                               I                1
Number of electrons                        I               32
Number of alpha electrons                  I               16
Number of beta electrons                   I               16
Number of basis functions                  I              207
Number of independent functions            I              207
Number of point charges in /Mol/           I                0
Number of translation vectors              I                0
Atomic numbers                             I   N=           5
           1           8           8           7           8
Nuclear charges                            R   N=           5
  1.00000000E+00  8.00000000E+00  8.00000000E+00  7.00000000E+00  8.00000000E+00
Current cartesian coordinates              R   N=          15
  2.14821267E+00 -1.10693887E+00  0.00000000E+00  2.50524971E+00  7.20603491E-01
  0.00000000E+00  8.32367687E-18  1.71704872E+00  0.00000000E+00 -1.88183085E+00
 -9.13677033E-02  0.00000000E+00 -1.12717430E+00 -2.21933811E+00  0.00000000E+00
Number of symbols in /Mol/                 I                0
Force Field                                I                0
Atom Types                                 C   N=           5
                                                            
Int Atom Types                             I   N=           5
           0           0           0           0           0
MM charges                                 R   N=           5
  0.00000000E+00  0.00000000E+00  0.00000000E+00  0.00000000E+00  0.00000000E+00
Integer atomic weights                     I   N=           5
           1          16          16          14          16
Real atomic weights                        R   N=           5
  1.00782504E+00  1.59949146E+01  1.59949146E+01  1.40030740E+01  1.59949146E+01
Atom fragment info                         I   N=           5
           0           0           0           0           0
Atom residue num                           I   N=           5
           0           0           0           0           0
Nuclear spins                              I   N=           5
           1           0           0           2           0
Nuclear ZEff                               R   N=           5
 -1.00000000E+00 -5.60000000E+00 -5.60000000E+00 -4.55000000E+00 -5.60000000E+00
Nuclear ZNuc                               R   N=           5
  1.00000000E+00  8.00000000E+00  8.00000000E+00  7.00000000E+00  8.00000000E+00
Nuclear QMom                               R   N=           5
  0.00000000E+00  0.00000000E+00  0.00000000E+00  2.04400000E+00  0.00000000E+00
Nuclear GFac                               R   N=           5
  2.79284600E+00  0.00000000E+00  0.00000000E+00  4.03761000E-01  0.00000000E+00
MicOpt                                     I   N=           5
          -1          -1          -1          -1          -1
Number of residues                         I                0
Number of secondary structures             I                0
SymInf integers                            I   N=          26
           1           2           1           1           1           1
           1          -1           0           0           0           0
           0           0           0           0           0           0
           0           0           0           0           0           0
           0           0
RotTr to input orientation                 R   N=          12
 -9.81445806E-01  0.00000000E+00  1.91739745E-01  1.91739745E-01  0.00000000E+00
  9.81445806E-01  0.00000000E+00  1.00000000E+00  0.00000000E+00  2.32059849E+00
  0.00000000E+00  6.74502764E-01
Number of contracted shells                I               65
Number of primitive shells                 I              119
Pure/Cartesian d shells                    I                0
Pure/Cartesian f shells                    I                0
Highest angular momentum                   I                3
Largest degree of contraction              I                7
Shell types                                I   N=          65
           0           0           0           0           1           1
           1          -2          -2           0           0           0
           0           0           1           1           1           1
          -2          -2          -2          -3          -3           0
           0           0           0           0           1           1
           1           1          -2          -2          -2          -3
          -3           0           0           0           0           0
           1           1           1           1          -2          -2
          -2          -3          -3           0           0           0
           0           0           1           1           1           1
          -2          -2          -2          -3          -3
Number of primitives per shell             I   N=          65
           3           1           1           1           1           1
           1           1           1           7           6           1
           1           1           3           1           1           1
           1           1           1           1           1           7
           6           1           1           1           3           1
           1           1           1           1           1           1
           1           7           6           1           1           1
           3           1           1           1           1           1
           1           1           1           7           6           1
           1           1           3           1           1           1
           1           1           1           1           1
Shell to atom map                          I   N=          65
           1           1           1           1           1           1
           1           1           1           2           2           2
           2           2           2           2           2           2
           2           2           2           2           2           3
           3           3           3           3           3           3
           3           3           3           3           3           3
           3           4           4           4           4           4
           4           4           4           4           4           4
           4           4           4           5           5           5
           5           5           5           5           5           5
           5           5           5           5           5
Primitive exponents                        R   N=         119
  3.38700000E+01  5.09500000E+00  1.15900000E+00  3.25800000E-01  1.02700000E-01
  2.52600000E-02  1.40700000E+00  3.88000000E-01  1.02000000E-01  1.05700000E+00
  2.47000000E-01  1.53300000E+04  2.29900000E+03  5.22400000E+02  1.47300000E+02
  4.75500000E+01  1.67600000E+01  6.20700000E+00  5.22400000E+02  1.47300000E+02
  4.75500000E+01  1.67600000E+01  6.20700000E+00  6.88200000E-01  1.75200000E+00
  2.38400000E-01  7.37600000E-02  3.44600000E+01  7.74900000E+00  2.28000000E+00
  7.15600000E-01  2.14000000E-01  5.97400000E-02  2.31400000E+00  6.45000000E-01
  2.14000000E-01  1.42800000E+00  5.00000000E-01  1.53300000E+04  2.29900000E+03
  5.22400000E+02  1.47300000E+02  4.75500000E+01  1.67600000E+01  6.20700000E+00
  5.22400000E+02  1.47300000E+02  4.75500000E+01  1.67600000E+01  6.20700000E+00
  6.88200000E-01  1.75200000E+00  2.38400000E-01  7.37600000E-02  3.44600000E+01
  7.74900000E+00  2.28000000E+00  7.15600000E-01  2.14000000E-01  5.97400000E-02
  2.31400000E+00  6.45000000E-01  2.14000000E-01  1.42800000E+00  5.00000000E-01
  1.14200000E+04  1.71200000E+03  3.89300000E+02  1.10000000E+02  3.55700000E+01
  1.25400000E+01  4.64400000E+00  3.89300000E+02  1.10000000E+02  3.55700000E+01
  1.25400000E+01  4.64400000E+00  5.11800000E-01  1.29300000E+00  1.78700000E-01
  5.76000000E-02  2.66300000E+01  5.94800000E+00  1.74200000E+00  5.55000000E-01
  1.72500000E-01  4.91000000E-02  1.65400000E+00  4.69000000E-01  1.51000000E-01
  1.09300000E+00  3.64000000E-01  1.53300000E+04  2.29900000E+03  5.22400000E+02
  1.47300000E+02  4.75500000E+01  1.67600000E+01  6.20700000E+00  5.22400000E+02
  1.47300000E+02  4.75500000E+01  1.67600000E+01  6.20700000E+00  6.88200000E-01
  1.75200000E+00  2.38400000E-01  7.37600000E-02  3.44600000E+01  7.74900000E+00
  2.28000000E+00  7.15600000E-01  2.14000000E-01  5.97400000E-02  2.31400000E+00
  6.45000000E-01  2.14000000E-01  1.42800000E+00  5.00000000E-01
Contraction coefficients                   R   N=         119
  2.54948632E-02  1.90362766E-01  8.52162022E-01  1.00000000E+00  1.00000000E+00
  1.00000000E+00  1.00000000E+00  1.00000000E+00  1.00000000E+00  1.00000000E+00
  1.00000000E+00  5.19808943E-04  4.02025621E-03  2.07128267E-02  8.10105536E-02
  2.35962985E-01  4.42653446E-01  3.57064423E-01 -4.42115008E-05 -1.22591041E-03
 -1.05517725E-02 -6.74452633E-02 -1.71198607E-01  1.07329856E+00  1.00000000E+00
  1.00000000E+00  1.00000000E+00  4.11634896E-02  2.57762836E-01  8.02419274E-01
  1.00000000E+00  1.00000000E+00  1.00000000E+00  1.00000000E+00  1.00000000E+00
  1.00000000E+00  1.00000000E+00  1.00000000E+00  5.19808943E-04  4.02025621E-03
  2.07128267E-02  8.10105536E-02  2.35962985E-01  4.42653446E-01  3.57064423E-01
 -4.42115008E-05 -1.22591041E-03 -1.05517725E-02 -6.74452633E-02 -1.71198607E-01
  1.07329856E+00  1.00000000E+00  1.00000000E+00  1.00000000E+00  4.11634896E-02
  2.57762836E-01  8.02419274E-01  1.00000000E+00  1.00000000E+00  1.00000000E+00
  1.00000000E+00  1.00000000E+00  1.00000000E+00  1.00000000E+00  1.00000000E+00
  5.34563860E-04  4.13435660E-03  2.12335358E-02  8.25006224E-02  2.38138871E-01
  4.42551547E-01  3.53757422E-01 -4.89867350E-05 -1.19527323E-03 -1.03490714E-02
 -6.48680190E-02 -1.71552477E-01  1.07289568E+00  1.00000000E+00  1.00000000E+00
  1.00000000E+00  3.98072123E-02  2.49002660E-01  8.10479727E-01  1.00000000E+00
  1.00000000E+00  1.00000000E+00  1.00000000E+00  1.00000000E+00  1.00000000E+00
  1.00000000E+00  1.00000000E+00  5.19808943E-04  4.02025621E-03  2.07128267E-02
  8.10105536E-02  2.35962985E-01  4.42653446E-01  3.57064423E-01 -4.42115008E-05
 -1.22591041E-03 -1.05517725E-02 -6.74452633E-02 -1.71198607E-01  1.07329856E+00
  1.00000000E+00  1.00000000E+00  1.00000000E+00  4.11634896E-02  2.57762836E-01
  8.02419274E-01  1.00000000E+00  1.00000000E+00  1.00000000E+00  1.00000000E+00
  1.00000000E+00  1.00000000E+00  1.00000000E+00  1.00000000E+00
Coordinates of each shell                  R   N=         195
  2.14821267E+00 -1.10693887E+00  0.00000000E+00  2.14821267E+00 -1.10693887E+00
  0.00000000E+00  2.14821267E+00 -1.10693887E+00  0.00000000E+00  2.14821267E+00
 -1.10693887E+00  0.00000000E+00  2.14821267E+00 -1.10693887E+00  0.00000000E+00
  2.14821267E+00 -1.10693887E+00  0.00000000E+00  2.14821267E+00 -1.10693887E+00
  0.00000000E+00  2.14821267E+00 -1.10693887E+00  0.00000000E+00  2.14821267E+00
 -1.10693887E+00  0.00000000E+00  2.50524971E+00  7.20603491E-01  0.00000000E+00
  2.50524971E+00  7.20603491E-01  0.00000000E+00  2.50524971E+00  7.20603491E-01
  0.00000000E+00  2.50524971E+00  7.20603491E-01  0.00000000E+00  2.50524971E+00
  7.20603491E-01  0.00000000E+00  2.50524971E+00  7.20603491E-01  0.00000000E+00
  2.50524971E+00  7.20603491E-01  0.00000000E+00  2.50524971E+00  7.20603491E-01
  0.00000000E+00  2.50524971E+00  7.20603491E-01  0.00000000E+00  2.50524971E+00
  7.20603491E-01  0.00000000E+00  2.50524971E+00  7.20603491E-01  0.00000000E+00
  2.50524971E+00  7.20603491E-01  0.00000000E+00  2.50524971E+00  7.20603491E-01
  0.00000000E+00  2.50524971E+00  7.20603491E-01  0.00000000E+00 -3.35073936E-17
  1.71704872E+00  0.00000000E+00 -3.35073936E-17  1.71704872E+00  0.00000000E+00
 -3.35073936E-17  1.71704872E+00  0.00000000E+00 -3.35073936E-17  1.71704872E+00
  0.00000000E+00 -3.35073936E-17  1.71704872E+00  0.00000000E+00 -3.35073936E-17
  1.71704872E+00  0.00000000E+00 -3.35073936E-17  1.71704872E+00  0.00000000E+00
 -3.35073936E-17  1.71704872E+00  0.00000000E+00 -3.35073936E-17  1.71704872E+00
  0.00000000E+00 -3.35073936E-17  1.71704872E+00  0.00000000E+00 -3.35073936E-17
  1.71704872E+00  0.00000000E+00 -3.35073936E-17  1.71704872E+00  0.00000000E+00
 -3.35073936E-17  1.71704872E+00  0.00000000E+00 -3.35073936E-17  1.71704872E+00
  0.00000000E+00 -1.88183085E+00 -9.13677033E-02  0.00000000E+00 -1.88183085E+00
 -9.13677033E-02  0.00000000E+00 -1.88183085E+00 -9.13677033E-02  0.00000000E+00
 -1.88183085E+00 -9.13677033E-02  0.00000000E+00 -1.88183085E+00 -9.13677033E-02
  0.00000000E+00 -1.88183085E+00 -9.13677033E-02  0.00000000E+00 -1.88183085E+00
 -9.13677033E-02  0.00000000E+00 -1.88183085E+00 -9.13677033E-02  0.00000000E+00
 -1.88183085E+00 -9.13677033E-02  0.00000000E+00 -1.88183085E+00 -9.13677033E-02
  0.00000000E+00 -1.88183085E+00 -9.13677033E-02  0.00000000E+00 -1.88183085E+00
 -9.13677033E-02  0.00000000E+00 -1.88183085E+00 -9.13677033E-02  0.00000000E+00
 -1.88183085E+00 -9.13677033E-02  0.00000000E+00 -1.12717430E+00 -2.21933811E+00
  0.00000000E+00 -1.12717430E+00 -2.21933811E+00  0.00000000E+00 -1.12717430E+00
 -2.21933811E+00  0.00000000E+00 -1.12717430E+00 -2.21933811E+00  0.00000000E+00
 -1.12717430E+00 -2.21933811E+00  0.00000000E+00 -1.12717430E+00 -2.21933811E+00
  0.00000000E+00 -1.12717430E+00 -2.21933811E+00  0.00000000E+00 -1.12717430E+00
 -2.21933811E+00  0.00000000E+00 -1.12717430E+00 -2.21933811E+00  0.00000000E+00
 -1.12717430E+00 -2.21933811E+00  0.00000000E+00 -1.12717430E+00 -2.21933811E+00
  0.00000000E+00 -1.12717430E+00 -2.21933811E+00  0.00000000E+00 -1.12717430E+00
 -2.21933811E+00  0.00000000E+00 -1.12717430E+00 -2.21933811E+00  0.00000000E+00
Num ILSW                                   I              100
ILSW                                       I   N=         100
           0           0           0           0           2           0
           0           0           0           0           0          -1
           5           0           0           0           2           0
           0           0           0           0           1           0
           1           0           0           0           0           0
           0           0      100000           0          -1           0
           0           0           0           0           0           0
           0           0           0           1           1           0
           0 -2000000000           1           0           0           0
           0           0           4          52           0           0
           0           0           0           0           0           0
           0           0           0           5           4           1
           0           0           0           0           0           0
           0           0           0           0           0           0
           0           0           0           0           0           0
           0           0           0           0           0           0
           0           0           0           0
Num RLSW                                   I               52
RLSW                                       R   N=          52
  1.00000000E+00  1.00000000E+00  1.00000000E+00  1.00000000E+00  1.00000000E+00
  0.00000000E+00  0.00000000E+00  1.00000000E+00  0.00000000E+00  0.00000000E+00
  0.00000000E+00  0.00000000E+00  1.00000000E+00  0.00000000E+00  0.00000000E+00
  0.00000000E+00  0.00000000E+00  1.00000000E+00  0.00000000E+00  0.00000000E+00
  0.00000000E+00  0.00000000E+00  1.00000000E+00  0.00000000E+00  0.00000000E+00
  0.00000000E+00  0.00000000E+00  1.00000000E+00  0.00000000E+00  0.00000000E+00
  0.00000000E+00  0.00000000E+00  1.00000000E+00  0.00000000E+00  0.00000000E+00
  0.00000000E+00  0.00000000E+00  0.00000000E+00  1.00000000E+00  1.00000000E+00
  0.00000000E+00  1.00000000E+00  0.00000000E+00  0.00000000E+00  0.00000000E+00
  0.00000000E+00  0.00000000E+00  0.00000000E+00  0.00000000E+00  0.00000000E+00
  0.00000000E+00  0.00000000E+00
MxBond                                     I                2
NBond                                      I   N=           5
           1           2           2           2           1
IBond                                      I   N=          10
           2           0           1           3           2           4
           3           5           4           0
RBond                                      R   N=          10
  1.00000000E+00  0.00000000E+00  1.00000000E+00  1.00000000E+00  1.00000000E+00
  1.00000000E+00  1.00000000E+00  2.00000000E+00  2.00000000E+00  0.00000000E+00
Virial Ratio                               R      2.002258846094767E+00
SCF Energy                                 R     -2.795065512524296E+02
MP2 Energy                                 R     -2.804551144793489E+02
Total Energy                               R     -2.804551144793489E+02
Post-SCF wavefunction norm                 R      1.583777726415259E+00
RMS Force                                  R      2.093030132485957E-03
RMS Density                                R      4.045421601779452E-09
NImag                                      I                0
Job Status                                 I                1
Nuclear derivative order                   I                2
External E-field                           R   N=          35
  0.00000000E+00  0.00000000E+00  0.00000000E+00  0.00000000E+00  0.00000000E+00
  0.00000000E+00  0.00000000E+00  0.00000000E+00  0.00000000E+00  0.00000000E+00
  0.00000000E+00  0.00000000E+00  0.00000000E+00  0.00000000E+00  0.00000000E+00
  0.00000000E+00  0.00000000E+00  0.00000000E+00  0.00000000E+00  0.00000000E+00
  0.00000000E+00  0.00000000E+00  0.00000000E+00  0.00000000E+00  0.00000000E+00
  0.00000000E+00  0.00000000E+00  0.00000000E+00  0.00000000E+00  0.00000000E+00
  0.00000000E+00  0.00000000E+00  0.00000000E+00  0.00000000E+00  0.00000000E+00
IOpCl                                      I                0
IROHF                                      I                0
Alpha Orbital Energies                     R   N=         207
 -2.07182014E+01 -2.06864989E+01 -2.06700176E+01 -1.58260653E+01 -1.64249718E+00
 -1.50531315E+00 -1.29384124E+00 -9.60135674E-01 -8.32216865E-01 -7.58255310E-01
 -7.38962367E-01 -6.39403117E-01 -6.18837618E-01 -6.17304894E-01 -5.03845640E-01
 -4.97092197E-01  3.48027975E-02  6.08195646E-02  9.51746196E-02  1.00853850E-01
  1.19734394E-01  1.22448385E-01  1.48652302E-01  1.51381589E-01  1.77644041E-01
  1.80675449E-01  1.89945842E-01  2.11048642E-01  2.16677670E-01  2.40775057E-01
  2.46512839E-01  2.68971140E-01  3.10924017E-01  3.14934881E-01  3.37893740E-01
  3.45097125E-01  3.47890644E-01  3.91255795E-01  4.46763862E-01  4.87816758E-01
  5.04751630E-01  5.19421332E-01  5.44837976E-01  5.61498216E-01  6.00383645E-01
  6.20579746E-01  6.38232269E-01  6.88662848E-01  7.17551931E-01  7.25004077E-01
  7.41569944E-01  7.61248553E-01  7.66299324E-01  7.95480594E-01  8.04584167E-01
  8.41694560E-01  8.43540058E-01  8.51400169E-01  8.85028234E-01  9.06789269E-01
  9.28792673E-01  9.47620980E-01  9.53579757E-01  1.01867625E+00  1.02935006E+00
  1.05407789E+00  1.06455811E+00  1.09177970E+00  1.14008708E+00  1.15592942E+00
  1.16925143E+00  1.22169483E+00  1.22520800E+00  1.24710724E+00  1.34658067E+00
  1.36700793E+00  1.37619303E+00  1.46695608E+00  1.48496388E+00  1.50645811E+00
  1.53923743E+00  1.59230600E+00  1.59787299E+00  1.60540162E+00  1.62493533E+00
  1.69591672E+00  1.74042132E+00  1.80248162E+00  1.83119392E+00  1.88862254E+00
  1.89111810E+00  1.92598093E+00  1.97823105E+00  1.98738549E+00  2.05082750E+00
  2.12741983E+00  2.12753340E+00  2.16349393E+00  2.18361734E+00  2.24134748E+00
  2.25692280E+00  2.29576167E+00  2.34536093E+00  2.36050775E+00  2.38861733E+00
  2.39898989E+00  2.43114926E+00  2.46754186E+00  2.47475396E+00  2.52579719E+00
  2.53322449E+00  2.54890261E+00  2.55766112E+00  2.61258701E+00  2.62665141E+00
  2.66853135E+00  2.67012078E+00  2.75408115E+00  2.80893182E+00  2.81062427E+00
  2.84313032E+00  2.91394591E+00  2.98504287E+00  3.04481394E+00  3.04548797E+00
  3.11645568E+00  3.12041901E+00  3.15963162E+00  3.21294001E+00  3.30742471E+00
  3.33230213E+00  3.36854924E+00  3.47170501E+00  3.68392221E+00  3.86829659E+00
  3.91729834E+00  4.17688669E+00  4.21510647E+00  4.22122809E+00  4.25818368E+00
  4.36438036E+00  4.49910449E+00  4.50377363E+00  4.55661634E+00  4.59619081E+00
  4.69891975E+00  4.81452818E+00  4.90213977E+00  4.91300011E+00  4.93710723E+00
  4.99972079E+00  5.00693934E+00  5.10913207E+00  5.12860067E+00  5.18180204E+00
  5.24771036E+00  5.25820227E+00  5.31756802E+00  5.32229097E+00  5.34986716E+00
  5.55295844E+00  5.64566514E+00  5.70281861E+00  5.88660928E+00  6.00044013E+00
  6.26780688E+00  6.29695893E+00  6.36081578E+00  6.37948429E+00  6.59612276E+00
  6.64774783E+00  6.65681477E+00  6.68516788E+00  6.72921740E+00  6.80016637E+00
  6.80488501E+00  6.84804093E+00  6.96717819E+00  7.02033105E+00  7.06607349E+00
  7.08129735E+00  7.13408038E+00  7.16171859E+00  7.17468258E+00  7.20223952E+00
  7.24500834E+00  7.24842183E+00  7.26954671E+00  7.34415340E+00  7.38739746E+00
  7.42380597E+00  7.44326642E+00  7.46338115E+00  7.55441409E+00  7.65683849E+00
  7.66543490E+00  7.79601332E+00  7.87997856E+00  7.94523856E+00  8.04572695E+00
  8.29945864E+00  8.49406065E+00  8.65568142E+00  1.36026226E+01  1.47897437E+01
  1.50783797E+01  1.57163485E+01
Alpha MO coefficients                      R   N=       42849
  6.65777837E-05 -7.09664304E-05 -1.12034519E-03  1.60638140E-05 -5.28167923E-05
  4.32111633E-05  0.00000000E+00 -8.25123404E-05 -3.08334486E-04  0.00000000E+00
  2.77605985E-05 -3.45294967E-04  0.00000000E+00  4.42043040E-05  0.00000000E+00
  0.00000000E+00 -2.69734956E-05  1.09251624E-05  2.22451823E-04  0.00000000E+00
  0.00000000E+00 -3.84448545E-05 -2.00490801E-04  3.27105875E-03 -9.60184946E-05
 -9.32726330E-05  3.61702219E-03  2.50570297E-03  1.05450584E-04 -5.18448454E-05
  0.00000000E+00 -7.49385632E-04  2.74011633E-04  0.00000000E+00 -2.05567368E-03
  1.02199108E-03  0.00000000E+00 -5.49249674E-04  4.75458134E-05  0.00000000E+00
  2.05002043E-05  0.00000000E+00  0.00000000E+00 -1.06620880E-05  4.35747494E-05
 -4.47982092E-04  0.00000000E+00  0.00000000E+00  4.57991148E-04 -6.47008949E-04
 -3.70334638E-04  0.00000000E+00  0.00000000E+00  5.83521769E-04 -7.03486745E-04
  0.00000000E+00  7.59827146E-05 -5.16791514E-05  0.00000000E+00  0.00000000E+00
 -3.23956295E-05  1.06099276E-04  0.00000000E+00  2.06317529E-04 -4.46452003E-05
  0.00000000E+00  0.00000000E+00 -1.94260006E-04  2.92535210E-04  9.76900536E-01
 -9.16515573E-03  4.34159352E-02  4.63960509E-04 -2.17736691E-03  4.68190563E-04
 -2.14022627E-03  0.00000000E+00 -3.35056721E-04  2.23678806E-03  0.00000000E+00
 -2.38531582E-03 -4.48947591E-04  0.00000000E+00 -2.53539662E-04  8.37466084E-05
  0.00000000E+00  5.01773364E-06  0.00000000E+00  0.00000000E+00 -2.64104276E-06
  3.98442128E-05  8.33610743E-04  0.00000000E+00  0.00000000E+00 -4.98184801E-04
 -1.88963296E-04 -1.38106477E-04  0.00000000E+00  0.00000000E+00 -5.12885380E-04
  3.60509288E-04  0.00000000E+00 -6.38864701E-06 -7.82219431E-05  0.00000000E+00
  0.00000000E+00 -9.98564195E-06  4.81775700E-05  0.00000000E+00  9.62328350E-05
 -1.02630828E-06  0.00000000E+00  0.00000000E+00 -3.54413602E-04  3.79251059E-04
  1.05179901E-04  4.63052500E-04 -3.23178669E-04 -8.56261694E-04  2.78296195E-04
 -4.55537677E-05 -1.00234321E-04  0.00000000E+00  7.14301616E-04  1.12055981E-03
  0.00000000E+00 -7.61313037E-04 -7.21429047E-04  0.00000000E+00  1.82605760E-04
  2.01530103E-04  0.00000000E+00 -5.34791310E-05  0.00000000E+00  0.00000000E+00
  1.95007923E-05  9.33262806E-05 -4.11786844E-04  0.00000000E+00  0.00000000E+00
  6.84772631E-05  1.08816350E-03  3.14403393E-05  0.00000000E+00  0.00000000E+00
 -3.01806225E-04  1.78201613E-05  0.00000000E+00 -7.93188439E-05 -1.14395907E-04
  0.00000000E+00  0.00000000E+00 -9.36954758E-05  1.06495139E-04  0.00000000E+00
 -1.20041721E-04  5.39857448E-05  0.00000000E+00  0.00000000E+00  3.07680238E-05
  5.34429009E-04 -7.29262368E-04  4.78096899E-05 -7.18267919E-05  1.86423433E-04
 -1.27213967E-04 -2.86986977E-05 -4.23325595E-05  0.00000000E+00  1.67451507E-04
  2.60715797E-04  0.00000000E+00  5.38462898E-04  3.33713322E-04  0.00000000E+00
 -2.08666450E-04 -5.25834028E-05  0.00000000E+00 -1.32627575E-05  0.00000000E+00
  0.00000000E+00  3.90972539E-06  1.47235755E-05 -2.54027821E-06  0.00000000E+00
  0.00000000E+00 -1.71025244E-04  1.22550444E-05 -2.90314594E-05  0.00000000E+00
  0.00000000E+00 -1.70528368E-04 -3.70539829E-05  0.00000000E+00 -5.44136002E-06
 -9.03820592E-06  0.00000000E+00  0.00000000E+00 -2.24097514E-05  8.99112370E-06
  0.00000000E+00  3.90344047E-05  5.97971572E-05  0.00000000E+00  0.00000000E+00
  1.60648311E-04 -1.03526677E-04  4.05561932E-05  6.70293809E-05 -1.32032861E-04
 -2.83099616E-05  8.95250640E-06  3.01406716E-06  0.00000000E+00  2.55516893E-04
  7.69513989E-05  0.00000000E+00  1.39844981E-04  3.22481733E-05  0.00000000E+00
  1.71933886E-05  0.00000000E+00  0.00000000E+00 -1.73161887E-05  1.21037012E-05
  2.98503847E-05  0.00000000E+00  0.00000000E+00 -1.08456424E-04  5.28729629E-05
 -2.68213529E-04  1.16312154E-05 -1.50203002E-05 -5.44279943E-04  1.62174091E-04
  5.93537473E-06  1.43781227E-05  0.00000000E+00  9.78188195E-06 -4.14471323E-05
  0.00000000E+00  1.62590662E-04  1.22341103E-04  0.00000000E+00 -5.23129846E-05
  4.49922531E-05  0.00000000E+00  6.86961042E-08  0.00000000E+00  0.00000000E+00
 -7.60631324E-06 -1.31965736E-05  1.52349898E-05  0.00000000E+00  0.00000000E+00
  3.73697566E-05  1.11679125E-04  5.48812280E-05  0.00000000E+00  0.00000000E+00
 -1.61165442E-05 -6.76379785E-05  0.00000000E+00  7.08839619E-06  1.13303591E-05
  0.00000000E+00  0.00000000E+00 -1.86740920E-07 -2.16676361E-05  0.00000000E+00
 -1.09104330E-05 -3.12168941E-05  0.00000000E+00  0.00000000E+00  3.60575507E-06
 -2.55546285E-05  7.57692035E-04  2.22501246E-05 -1.81727521E-05  3.00775246E-04
 -3.75886861E-04  1.62587648E-05  2.71432531E-05  0.00000000E+00 -6.45523948E-05
 -1.52603548E-04  0.00000000E+00  1.45783417E-04 -1.87814204E-04  0.00000000E+00
 -1.54819596E-04  1.39638903E-04  0.00000000E+00 -3.94170238E-06  0.00000000E+00
  0.00000000E+00 -2.98590385E-05 -9.42387037E-06 -5.21770489E-05  0.00000000E+00
  0.00000000E+00  8.37876383E-05  1.20211502E-04 -6.64386536E-05  0.00000000E+00
  0.00000000E+00  5.78705855E-05  2.89398503E-05  0.00000000E+00  2.73989423E-06
  3.24264178E-06  0.00000000E+00  0.00000000E+00 -7.46203171E-06 -1.68036681E-06
  0.00000000E+00  4.32210062E-06 -2.47878642E-05  0.00000000E+00  0.00000000E+00
  9.24993683E-05 -1.58471712E-04  2.37744192E-04  1.36054721E-03 -1.48129741E-04
 -6.78278409E-04  8.88869788E-04  6.26523026E-05 -7.12150784E-05  0.00000000E+00
  5.64151650E-04 -2.08738686E-03  0.00000000E+00  1.21253823E-04  4.68472330E-04
  0.00000000E+00  1.80370428E-04 -3.07207646E-04  0.00000000E+00 -1.28073770E-04
  0.00000000E+00  0.00000000E+00 -2.05419155E-04 -1.57106734E-04 -4.60283104E-04
  0.00000000E+00  0.00000000E+00 -6.10467123E-04 -9.12096162E-04 -4.08459056E-05
  0.00000000E+00  0.00000000E+00  6.36955768E-05  1.09444304E-04  0.00000000E+00
  8.51950971E-06  3.67179653E-05  0.00000000E+00  0.00000000E+00 -2.40227950E-05
 -3.72250855E-06  0.00000000E+00 -1.33239925E-04  1.60734715E-04  0.00000000E+00
  0.00000000E+00 -3.13901638E-04 -2.44773807E-05  9.76647570E-01 -9.88699035E-03
  4.35730910E-02  3.66846702E-03 -8.88199103E-04 -4.46464718E-04  2.13262979E-03
  0.00000000E+00  5.04820176E-04 -2.50658368E-03  0.00000000E+00 -5.56092858E-05
  8.02229241E-04  0.00000000E+00  1.04916094E-04 -6.52130999E-05  0.00000000E+00
 -1.94334378E-04  0.00000000E+00  0.00000000E+00 -7.51348439E-05 -4.32232657E-05
  4.09671610E-04  0.00000000E+00  0.00000000E+00  8.61618412E-04  4.77878467E-04
 -2.08697968E-04  0.00000000E+00  0.00000000E+00 -1.32433097E-04 -3.84018658E-05
  0.00000000E+00 -3.84542338E-06  7.04238973E-05  0.00000000E+00  0.00000000E+00
 -3.03869396E-05  1.08221295E-05  0.00000000E+00 -9.02284293E-05  9.24079156E-05
  0.00000000E+00  0.00000000E+00 -1.59853975E-04  2.06764582E-04  3.81755812E-04
  2.00151897E-03  1.23818928E-03 -2.04009301E-05  4.51902252E-05  2.71799386E-04
  0.00000000E+00  3.93909567E-04  1.04871474E-03  0.00000000E+00 -7.72858012E-05
  2.41126421E-04  0.00000000E+00 -2.36778633E-05  0.00000000E+00  0.00000000E+00
  3.02434835E-05 -2.53278271E-05 -2.04170861E-04  0.00000000E+00  0.00000000E+00
 -3.60607360E-04  3.78741467E-04  9.76838142E-01 -9.18407860E-03  4.34582779E-02
  1.60196185E-04 -1.91914653E-03 -2.02472193E-03 -8.85173441E-04  0.00000000E+00
  2.06218713E-03  8.22489937E-04  0.00000000E+00 -4.24011692E-04  6.66601841E-04
  0.00000000E+00  2.24835367E-04 -2.90576996E-04  0.00000000E+00  3.23850505E-05
  0.00000000E+00  0.00000000E+00 -7.69062359E-05  5.86696533E-05  7.66887838E-04
  0.00000000E+00  0.00000000E+00 -2.15980499E-04  3.43387913E-04 -2.31208395E-04
  0.00000000E+00  0.00000000E+00  3.47903582E-04  3.69677299E-06  0.00000000E+00
 -8.02185257E-05  7.17159143E-08  0.00000000E+00  0.00000000E+00  1.83529226E-05