title                                                                   
Freq      RMP2-FC                                                     Aug-CC-pVTZ         
Number of atoms                            I                5
Info1-9                                    I   N=           9
          33          24           0           0           0         100
           6           2           1
Full Title                                 C   N=           1
title       
Route                                      C   N=           4
#p freq mp2/aug-cc-pvtz density=current         
Charge                                     I                0
Multiplicity                               I                1
Number of electrons                        I               32
Number of alpha electrons                  I               16
Number of beta electrons                   I               16
Number of basis functions                  I              207
Number of independent functions            I              207
Number of point charges in /Mol/           I                0
Number of translation vectors              I                0
Atomic numbers                             I   N=           5
           1           8           8           7           8
Nuclear charges                            R   N=           5
  1.00000000E+00  8.00000000E+00  8.00000000E+00  7.00000000E+00  8.00000000E+00
Current cartesian coordinates              R   N=          15
  2.10181854E+00 -1.10290910E+00  0.00000000E+00  2.48644331E+00  6.89487370E-01
  0.00000000E+00  1.10657118E-16  1.73197424E+00  0.00000000E+00 -1.87375827E+00
 -8.48051150E-02  0.00000000E+00 -1.10963214E+00 -2.20939350E+00  0.00000000E+00
Number of symbols in /Mol/                 I                0
Force Field                                I                0
Atom Types                                 C   N=           5
                                                            
Int Atom Types                             I   N=           5
           0           0           0           0           0
MM charges                                 R   N=           5
  0.00000000E+00  0.00000000E+00  0.00000000E+00  0.00000000E+00  0.00000000E+00
Integer atomic weights                     I   N=           5
           1          16          16          14          16
Real atomic weights                        R   N=           5
  1.00782504E+00  1.59949146E+01  1.59949146E+01  1.40030740E+01  1.59949146E+01
Atom fragment info                         I   N=           5
           0           0           0           0           0
Atom residue num                           I   N=           5
           0           0           0           0           0
Nuclear spins                              I   N=           5
           1           0           0           2           0
Nuclear ZEff                               R   N=           5
 -1.00000000E+00 -5.60000000E+00 -5.60000000E+00 -4.55000000E+00 -5.60000000E+00
Nuclear ZNuc                               R   N=           5
  1.00000000E+00  8.00000000E+00  8.00000000E+00  7.00000000E+00  8.00000000E+00
Nuclear QMom                               R   N=           5
  0.00000000E+00  0.00000000E+00  0.00000000E+00  2.04400000E+00  0.00000000E+00
Nuclear GFac                               R   N=           5
  2.79284600E+00  0.00000000E+00  0.00000000E+00  4.03761000E-01  0.00000000E+00
MicOpt                                     I   N=           5
          -1          -1          -1          -1          -1
Number of residues                         I                0
Number of secondary structures             I                0
SymInf integers                            I   N=          26
           1           2           1           1           1           1
           1          -1           0           0           0           0
           0           0           0           0           0           0
           0           0           0           0           0           0
           0           0
RotTr to input orientation                 R   N=          12
 -9.77742045E-01  0.00000000E+00  2.09810614E-01  2.09810614E-01  0.00000000E+00
  9.77742045E-01  0.00000000E+00  1.00000000E+00  0.00000000E+00  2.28643840E+00
  0.00000000E+00  6.37376756E-01
Number of contracted shells                I               65
Number of primitive shells                 I              119
Pure/Cartesian d shells                    I                0
Pure/Cartesian f shells                    I                0
Highest angular momentum                   I                3
Largest degree of contraction              I                7
Shell types                                I   N=          65
           0           0           0           0           1           1
           1          -2          -2           0           0           0
           0           0           1           1           1           1
          -2          -2          -2          -3          -3           0
           0           0           0           0           1           1
           1           1          -2          -2          -2          -3
          -3           0           0           0           0           0
           1           1           1           1          -2          -2
          -2          -3          -3           0           0           0
           0           0           1           1           1           1
          -2          -2          -2          -3          -3
Number of primitives per shell             I   N=          65
           3           1           1           1           1           1
           1           1           1           7           6           1
           1           1           3           1           1           1
           1           1           1           1           1           7
           6           1           1           1           3           1
           1           1           1           1           1           1
           1           7           6           1           1           1
           3           1           1           1           1           1
           1           1           1           7           6           1
           1           1           3           1           1           1
           1           1           1           1           1
Shell to atom map                          I   N=          65
           1           1           1           1           1           1
           1           1           1           2           2           2
           2           2           2           2           2           2
           2           2           2           2           2           3
           3           3           3           3           3           3
           3           3           3           3           3           3
           3           4           4           4           4           4
           4           4           4           4           4           4
           4           4           4           5           5           5
           5           5           5           5           5           5
           5           5           5           5           5
Primitive exponents                        R   N=         119
  3.38700000E+01  5.09500000E+00  1.15900000E+00  3.25800000E-01  1.02700000E-01
  2.52600000E-02  1.40700000E+00  3.88000000E-01  1.02000000E-01  1.05700000E+00
  2.47000000E-01  1.53300000E+04  2.29900000E+03  5.22400000E+02  1.47300000E+02
  4.75500000E+01  1.67600000E+01  6.20700000E+00  5.22400000E+02  1.47300000E+02
  4.75500000E+01  1.67600000E+01  6.20700000E+00  6.88200000E-01  1.75200000E+00
  2.38400000E-01  7.37600000E-02  3.44600000E+01  7.74900000E+00  2.28000000E+00
  7.15600000E-01  2.14000000E-01  5.97400000E-02  2.31400000E+00  6.45000000E-01
  2.14000000E-01  1.42800000E+00  5.00000000E-01  1.53300000E+04  2.29900000E+03
  5.22400000E+02  1.47300000E+02  4.75500000E+01  1.67600000E+01  6.20700000E+00
  5.22400000E+02  1.47300000E+02  4.75500000E+01  1.67600000E+01  6.20700000E+00
  6.88200000E-01  1.75200000E+00  2.38400000E-01  7.37600000E-02  3.44600000E+01
  7.74900000E+00  2.28000000E+00  7.15600000E-01  2.14000000E-01  5.97400000E-02
  2.31400000E+00  6.45000000E-01  2.14000000E-01  1.42800000E+00  5.00000000E-01
  1.14200000E+04  1.71200000E+03  3.89300000E+02  1.10000000E+02  3.55700000E+01
  1.25400000E+01  4.64400000E+00  3.89300000E+02  1.10000000E+02  3.55700000E+01
  1.25400000E+01  4.64400000E+00  5.11800000E-01  1.29300000E+00  1.78700000E-01
  5.76000000E-02  2.66300000E+01  5.94800000E+00  1.74200000E+00  5.55000000E-01
  1.72500000E-01  4.91000000E-02  1.65400000E+00  4.69000000E-01  1.51000000E-01
  1.09300000E+00  3.64000000E-01  1.53300000E+04  2.29900000E+03  5.22400000E+02
  1.47300000E+02  4.75500000E+01  1.67600000E+01  6.20700000E+00  5.22400000E+02
  1.47300000E+02  4.75500000E+01  1.67600000E+01  6.20700000E+00  6.88200000E-01
  1.75200000E+00  2.38400000E-01  7.37600000E-02  3.44600000E+01  7.74900000E+00
  2.28000000E+00  7.15600000E-01  2.14000000E-01  5.97400000E-02  2.31400000E+00
  6.45000000E-01  2.14000000E-01  1.42800000E+00  5.00000000E-01
Contraction coefficients                   R   N=         119
  2.54948632E-02  1.90362766E-01  8.52162022E-01  1.00000000E+00  1.00000000E+00
  1.00000000E+00  1.00000000E+00  1.00000000E+00  1.00000000E+00  1.00000000E+00
  1.00000000E+00  5.19808943E-04  4.02025621E-03  2.07128267E-02  8.10105536E-02
  2.35962985E-01  4.42653446E-01  3.57064423E-01 -4.42115008E-05 -1.22591041E-03
 -1.05517725E-02 -6.74452633E-02 -1.71198607E-01  1.07329856E+00  1.00000000E+00
  1.00000000E+00  1.00000000E+00  4.11634896E-02  2.57762836E-01  8.02419274E-01
  1.00000000E+00  1.00000000E+00  1.00000000E+00  1.00000000E+00  1.00000000E+00
  1.00000000E+00  1.00000000E+00  1.00000000E+00  5.19808943E-04  4.02025621E-03
  2.07128267E-02  8.10105536E-02  2.35962985E-01  4.42653446E-01  3.57064423E-01
 -4.42115008E-05 -1.22591041E-03 -1.05517725E-02 -6.74452633E-02 -1.71198607E-01
  1.07329856E+00  1.00000000E+00  1.00000000E+00  1.00000000E+00  4.11634896E-02
  2.57762836E-01  8.02419274E-01  1.00000000E+00  1.00000000E+00  1.00000000E+00
  1.00000000E+00  1.00000000E+00  1.00000000E+00  1.00000000E+00  1.00000000E+00
  5.34563860E-04  4.13435660E-03  2.12335358E-02  8.25006224E-02  2.38138871E-01
  4.42551547E-01  3.53757422E-01 -4.89867350E-05 -1.19527323E-03 -1.03490714E-02
 -6.48680190E-02 -1.71552477E-01  1.07289568E+00  1.00000000E+00  1.00000000E+00
  1.00000000E+00  3.98072123E-02  2.49002660E-01  8.10479727E-01  1.00000000E+00
  1.00000000E+00  1.00000000E+00  1.00000000E+00  1.00000000E+00  1.00000000E+00
  1.00000000E+00  1.00000000E+00  5.19808943E-04  4.02025621E-03  2.07128267E-02
  8.10105536E-02  2.35962985E-01  4.42653446E-01  3.57064423E-01 -4.42115008E-05
 -1.22591041E-03 -1.05517725E-02 -6.74452633E-02 -1.71198607E-01  1.07329856E+00
  1.00000000E+00  1.00000000E+00  1.00000000E+00  4.11634896E-02  2.57762836E-01
  8.02419274E-01  1.00000000E+00  1.00000000E+00  1.00000000E+00  1.00000000E+00
  1.00000000E+00  1.00000000E+00  1.00000000E+00  1.00000000E+00
Coordinates of each shell                  R   N=         195
  2.10181854E+00 -1.10290910E+00  0.00000000E+00  2.10181854E+00 -1.10290910E+00
  0.00000000E+00  2.10181854E+00 -1.10290910E+00  0.00000000E+00  2.10181854E+00
 -1.10290910E+00  0.00000000E+00  2.10181854E+00 -1.10290910E+00  0.00000000E+00
  2.10181854E+00 -1.10290910E+00  0.00000000E+00  2.10181854E+00 -1.10290910E+00
  0.00000000E+00  2.10181854E+00 -1.10290910E+00  0.00000000E+00  2.10181854E+00
 -1.10290910E+00  0.00000000E+00  2.48644331E+00  6.89487370E-01  0.00000000E+00
  2.48644331E+00  6.89487370E-01  0.00000000E+00  2.48644331E+00  6.89487370E-01
  0.00000000E+00  2.48644331E+00  6.89487370E-01  0.00000000E+00  2.48644331E+00
  6.89487370E-01  0.00000000E+00  2.48644331E+00  6.89487370E-01  0.00000000E+00
  2.48644331E+00  6.89487370E-01  0.00000000E+00  2.48644331E+00  6.89487370E-01
  0.00000000E+00  2.48644331E+00  6.89487370E-01  0.00000000E+00  2.48644331E+00
  6.89487370E-01  0.00000000E+00  2.48644331E+00  6.89487370E-01  0.00000000E+00
  2.48644331E+00  6.89487370E-01  0.00000000E+00  2.48644331E+00  6.89487370E-01
  0.00000000E+00  2.48644331E+00  6.89487370E-01  0.00000000E+00  3.28972923E-17
  1.73197424E+00  0.00000000E+00  3.28972923E-17  1.73197424E+00  0.00000000E+00
  3.28972923E-17  1.73197424E+00  0.00000000E+00  3.28972923E-17  1.73197424E+00
  0.00000000E+00  3.28972923E-17  1.73197424E+00  0.00000000E+00  3.28972923E-17
  1.73197424E+00  0.00000000E+00  3.28972923E-17  1.73197424E+00  0.00000000E+00
  3.28972923E-17  1.73197424E+00  0.00000000E+00  3.28972923E-17  1.73197424E+00
  0.00000000E+00  3.28972923E-17  1.73197424E+00  0.00000000E+00  3.28972923E-17
  1.73197424E+00  0.00000000E+00  3.28972923E-17  1.73197424E+00  0.00000000E+00
  3.28972923E-17  1.73197424E+00  0.00000000E+00  3.28972923E-17  1.73197424E+00
  0.00000000E+00 -1.87375827E+00 -8.48051150E-02  0.00000000E+00 -1.87375827E+00
 -8.48051150E-02  0.00000000E+00 -1.87375827E+00 -8.48051150E-02  0.00000000E+00
 -1.87375827E+00 -8.48051150E-02  0.00000000E+00 -1.87375827E+00 -8.48051150E-02
  0.00000000E+00 -1.87375827E+00 -8.48051150E-02  0.00000000E+00 -1.87375827E+00
 -8.48051150E-02  0.00000000E+00 -1.87375827E+00 -8.48051150E-02  0.00000000E+00
 -1.87375827E+00 -8.48051150E-02  0.00000000E+00 -1.87375827E+00 -8.48051150E-02
  0.00000000E+00 -1.87375827E+00 -8.48051150E-02  0.00000000E+00 -1.87375827E+00
 -8.48051150E-02  0.00000000E+00 -1.87375827E+00 -8.48051150E-02  0.00000000E+00
 -1.87375827E+00 -8.48051150E-02  0.00000000E+00 -1.10963214E+00 -2.20939350E+00
  0.00000000E+00 -1.10963214E+00 -2.20939350E+00  0.00000000E+00 -1.10963214E+00
 -2.20939350E+00  0.00000000E+00 -1.10963214E+00 -2.20939350E+00  0.00000000E+00
 -1.10963214E+00 -2.20939350E+00  0.00000000E+00 -1.10963214E+00 -2.20939350E+00
  0.00000000E+00 -1.10963214E+00 -2.20939350E+00  0.00000000E+00 -1.10963214E+00
 -2.20939350E+00  0.00000000E+00 -1.10963214E+00 -2.20939350E+00  0.00000000E+00
 -1.10963214E+00 -2.20939350E+00  0.00000000E+00 -1.10963214E+00 -2.20939350E+00
  0.00000000E+00 -1.10963214E+00 -2.20939350E+00  0.00000000E+00 -1.10963214E+00
 -2.20939350E+00  0.00000000E+00 -1.10963214E+00 -2.20939350E+00  0.00000000E+00
Num ILSW                                   I              100
ILSW                                       I   N=         100
           0           0           0           0           2           0
           0           0           0           0           0          -1
           5           0           0           0           2           0
           0           0           0           0           1           0
           1           0           0           0           0           0
           0           0      100000           0          -1           0
           0           0           0           0           0           0
           0           0           0           1           1           0
           0 -2000000000           1           0           0           0
           0           0           4          52           0           0
           0           0           0           0           0           0
           0           0           0           5           4           1
           0           0           0           0           0           0
           0           0           0           0           0           0
           0           0           0           0           0           0
           0           0           0           0           0           0
           0           0           0           0
Num RLSW                                   I               52
RLSW                                       R   N=          52
  1.00000000E+00  1.00000000E+00  1.00000000E+00  1.00000000E+00  1.00000000E+00
  0.00000000E+00  0.00000000E+00  1.00000000E+00  0.00000000E+00  0.00000000E+00
  0.00000000E+00  0.00000000E+00  1.00000000E+00  0.00000000E+00  0.00000000E+00
  0.00000000E+00  0.00000000E+00  1.00000000E+00  0.00000000E+00  0.00000000E+00
  0.00000000E+00  0.00000000E+00  1.00000000E+00  0.00000000E+00  0.00000000E+00
  0.00000000E+00  0.00000000E+00  1.00000000E+00  0.00000000E+00  0.00000000E+00
  0.00000000E+00  0.00000000E+00  1.00000000E+00  0.00000000E+00  0.00000000E+00
  0.00000000E+00  0.00000000E+00  0.00000000E+00  1.00000000E+00  1.00000000E+00
  0.00000000E+00  1.00000000E+00  0.00000000E+00  0.00000000E+00  0.00000000E+00
  0.00000000E+00  0.00000000E+00  0.00000000E+00  0.00000000E+00  0.00000000E+00
  0.00000000E+00  0.00000000E+00
MxBond                                     I                2
NBond                                      I   N=           5
           1           2           2           2           1
IBond                                      I   N=          10
           2           0           1           3           2           4
           3           5           4           0
RBond                                      R   N=          10
  1.00000000E+00  0.00000000E+00  1.00000000E+00  1.00000000E+00  1.00000000E+00
  1.00000000E+00  1.00000000E+00  2.00000000E+00  2.00000000E+00  0.00000000E+00
Virial Ratio                               R      2.002132492724907E+00
SCF Energy                                 R     -2.795071535463530E+02
MP2 Energy                                 R     -2.804550502773592E+02
Total Energy                               R     -2.804550502773592E+02
Post-SCF wavefunction norm                 R      1.583306995455875E+00
RMS Force                                  R      4.818993297295696E-03
RMS Density                                R      4.208223909165874E-09
NImag                                      I                1
Job Status                                 I                1
Nuclear derivative order                   I                2
External E-field                           R   N=          35
  0.00000000E+00  0.00000000E+00  0.00000000E+00  0.00000000E+00  0.00000000E+00
  0.00000000E+00  0.00000000E+00  0.00000000E+00  0.00000000E+00  0.00000000E+00
  0.00000000E+00  0.00000000E+00  0.00000000E+00  0.00000000E+00  0.00000000E+00
  0.00000000E+00  0.00000000E+00  0.00000000E+00  0.00000000E+00  0.00000000E+00
  0.00000000E+00  0.00000000E+00  0.00000000E+00  0.00000000E+00  0.00000000E+00
  0.00000000E+00  0.00000000E+00  0.00000000E+00  0.00000000E+00  0.00000000E+00
  0.00000000E+00  0.00000000E+00  0.00000000E+00  0.00000000E+00  0.00000000E+00
IOpCl                                      I                0
IROHF                                      I                0
Alpha Orbital Energies                     R   N=         207
 -2.07200347E+01 -2.06870972E+01 -2.06677407E+01 -1.58260330E+01 -1.64457184E+00
 -1.50649204E+00 -1.29661365E+00 -9.61309149E-01 -8.35410911E-01 -7.59115656E-01
 -7.40226991E-01 -6.40802341E-01 -6.19199636E-01 -6.18722933E-01 -5.04547439E-01
 -4.98161163E-01  3.51825792E-02  6.03210650E-02  9.50265304E-02  1.00421986E-01
  1.19599015E-01  1.22564835E-01  1.49588383E-01  1.52153265E-01  1.77267896E-01
  1.80268669E-01  1.89739130E-01  2.11202582E-01  2.16859742E-01  2.42026891E-01
  2.46309933E-01  2.69005269E-01  3.14553249E-01  3.17197719E-01  3.37797763E-01
  3.43768229E-01  3.46550239E-01  3.92583246E-01  4.51260012E-01  4.89891600E-01
  5.05222192E-01  5.18459614E-01  5.45946682E-01  5.61029396E-01  5.99770400E-01
  6.21353731E-01  6.38901239E-01  6.89550509E-01  7.16315031E-01  7.24664917E-01
  7.43443500E-01  7.63304051E-01  7.67064905E-01  7.95920086E-01  8.06617909E-01
  8.41090032E-01  8.43008714E-01  8.51366441E-01  8.85014712E-01  9.06905022E-01
  9.29308704E-01  9.48104740E-01  9.54670596E-01  1.01860935E+00  1.03279409E+00
  1.06275992E+00  1.06721248E+00  1.09622376E+00  1.14470475E+00  1.15723636E+00
  1.16932125E+00  1.22159726E+00  1.22712856E+00  1.24573911E+00  1.35506024E+00
  1.36406870E+00  1.37168587E+00  1.46792926E+00  1.49103714E+00  1.50452321E+00
  1.54521299E+00  1.59731398E+00  1.59907423E+00  1.60561436E+00  1.62866279E+00
  1.69520770E+00  1.74189166E+00  1.80181932E+00  1.83001800E+00  1.88814673E+00
  1.89712915E+00  1.92741065E+00  1.97883605E+00  1.99646177E+00  2.05266611E+00
  2.12493123E+00  2.13289095E+00  2.16733432E+00  2.18924791E+00  2.24330711E+00
  2.25794203E+00  2.29449197E+00  2.35177122E+00  2.36405530E+00  2.38894107E+00
  2.40287381E+00  2.43313531E+00  2.46704393E+00  2.48087406E+00  2.52901323E+00
  2.54038131E+00  2.54884442E+00  2.55920086E+00  2.61643388E+00  2.62796624E+00
  2.67293590E+00  2.67350311E+00  2.75422966E+00  2.80968494E+00  2.81422936E+00
  2.84177220E+00  2.91890847E+00  2.98548427E+00  3.04601594E+00  3.05089554E+00
  3.11604082E+00  3.11814886E+00  3.17613637E+00  3.21223073E+00  3.30730236E+00
  3.33475235E+00  3.36304525E+00  3.48064021E+00  3.67849017E+00  3.87048765E+00
  3.94546702E+00  4.19665166E+00  4.22618434E+00  4.22905140E+00  4.26861022E+00
  4.37046511E+00  4.50126141E+00  4.53350806E+00  4.55733859E+00  4.60582600E+00
  4.69345353E+00  4.82369292E+00  4.89974865E+00  4.91443552E+00  4.95445662E+00
  5.00269770E+00  5.00623277E+00  5.10888087E+00  5.14272532E+00  5.20021029E+00
  5.26153344E+00  5.28235636E+00  5.33306330E+00  5.34627128E+00  5.37243614E+00
  5.54861822E+00  5.64485571E+00  5.70613228E+00  5.89002693E+00  6.00046240E+00
  6.26522678E+00  6.29062822E+00  6.36021066E+00  6.37909488E+00  6.60027250E+00
  6.65815194E+00  6.66036690E+00  6.69065000E+00  6.72608095E+00  6.79839714E+00
  6.80515257E+00  6.85219430E+00  6.96774817E+00  7.03349943E+00  7.06589115E+00
  7.09105359E+00  7.14243919E+00  7.17483754E+00  7.17668631E+00  7.21896722E+00
  7.25310148E+00  7.25323263E+00  7.27001579E+00  7.34891185E+00  7.39497377E+00
  7.43729586E+00  7.44246237E+00  7.47001438E+00  7.56139052E+00  7.66399140E+00
  7.66854874E+00  7.81023772E+00  7.89032652E+00  7.95405253E+00  8.06544992E+00
  8.31712934E+00  8.51634620E+00  8.65781846E+00  1.36240958E+01  1.48194932E+01
  1.52761358E+01  1.57639080E+01
Alpha MO coefficients                      R   N=       42849
  6.64796566E-05 -1.68621718E-05 -1.18506379E-03  1.18227855E-05 -5.09034066E-05
  4.19391374E-05  0.00000000E+00 -1.10384635E-04 -2.76671679E-04  0.00000000E+00
 -5.18935968E-06 -3.49394280E-04  0.00000000E+00  4.24504459E-05  0.00000000E+00
  0.00000000E+00 -2.90566216E-05  1.41228461E-05  2.36464375E-04  0.00000000E+00
  0.00000000E+00 -5.91428088E-05 -2.32415528E-04  3.02001498E-03 -9.71907239E-05
 -1.01053040E-04  3.54703170E-03  2.51875866E-03  1.02679108E-04 -5.37410981E-05
  0.00000000E+00 -7.27259239E-04  2.92719889E-04  0.00000000E+00 -1.93610708E-03
  1.10824814E-03  0.00000000E+00 -5.41077573E-04  2.97842701E-05  0.00000000E+00
  2.12499109E-05  0.00000000E+00  0.00000000E+00 -8.85308655E-06  4.48271564E-05
 -4.44395914E-04  0.00000000E+00  0.00000000E+00  4.33590618E-04 -6.70032303E-04
 -3.66643818E-04  0.00000000E+00  0.00000000E+00  5.40293188E-04 -7.59981056E-04
  0.00000000E+00  7.43419346E-05 -5.35400133E-05  0.00000000E+00  0.00000000E+00
 -2.79875912E-05  1.07712589E-04  0.00000000E+00  2.07292571E-04 -4.76056679E-05
  0.00000000E+00  0.00000000E+00 -1.76923025E-04  3.01447791E-04  9.76903681E-01
 -9.17306313E-03  4.34084719E-02  4.97608702E-04 -2.21200082E-03  4.53158367E-04
 -2.14877134E-03  0.00000000E+00 -3.26081000E-04  2.25461429E-03  0.00000000E+00
 -2.31192839E-03 -4.79987315E-04  0.00000000E+00 -2.21710540E-04  1.00585072E-04
  0.00000000E+00  7.36904085E-06  0.00000000E+00  0.00000000E+00 -5.30701470E-06
  3.77843068E-05  8.28252784E-04  0.00000000E+00  0.00000000E+00 -4.76194090E-04
 -1.66625560E-04 -1.36098086E-04  0.00000000E+00  0.00000000E+00 -5.48324581E-04
  3.49874316E-04  0.00000000E+00 -5.85290114E-06 -7.91763757E-05  0.00000000E+00
  0.00000000E+00 -8.97695521E-06  4.83321827E-05  0.00000000E+00  9.13905592E-05
 -5.51653252E-07  0.00000000E+00  0.00000000E+00 -3.35550516E-04  3.82654321E-04
  1.04716582E-04  4.59701092E-04 -3.23372880E-04 -7.90868602E-04  3.52417353E-04
 -4.40765264E-05 -9.99213395E-05  0.00000000E+00  6.98571293E-04  1.11162272E-03
  0.00000000E+00 -7.59475918E-04 -6.77551470E-04  0.00000000E+00  1.91816864E-04
  2.10454054E-04  0.00000000E+00 -5.24395025E-05  0.00000000E+00  0.00000000E+00
  1.93399340E-05  9.31036866E-05 -4.16285968E-04  0.00000000E+00  0.00000000E+00
  3.98670367E-05  1.07998174E-03  2.63077404E-05  0.00000000E+00  0.00000000E+00
 -3.16817024E-04  2.31299509E-05  0.00000000E+00 -7.85554824E-05 -1.13591065E-04
  0.00000000E+00  0.00000000E+00 -9.66111703E-05  1.05627488E-04  0.00000000E+00
 -1.24116794E-04  4.74452680E-05  0.00000000E+00  0.00000000E+00  1.71600502E-05
  5.19896039E-04 -6.98403016E-04  4.47432892E-05 -6.98085423E-05  2.04369587E-04
 -1.75918573E-04 -2.85777451E-05 -4.15051269E-05  0.00000000E+00  1.66730815E-04
  2.54080550E-04  0.00000000E+00  5.59204540E-04  3.17056334E-04  0.00000000E+00
 -2.13133228E-04 -6.32048753E-05  0.00000000E+00 -1.29907787E-05  0.00000000E+00
  0.00000000E+00  3.20074456E-06  1.52601733E-05 -2.05611304E-06  0.00000000E+00
  0.00000000E+00 -1.63525563E-04  1.02401593E-05 -2.46727567E-05  0.00000000E+00
  0.00000000E+00 -1.61041602E-04 -3.32794145E-05  0.00000000E+00 -5.68349720E-06
 -9.06582854E-06  0.00000000E+00  0.00000000E+00 -2.18309904E-05  9.35880147E-06
  0.00000000E+00  3.93204413E-05  6.11435272E-05  0.00000000E+00  0.00000000E+00
  1.58890026E-04 -1.03160035E-04  4.06707718E-05  6.85485163E-05 -1.36469250E-04
 -3.06168407E-05  1.81965575E-05  8.74578838E-06  0.00000000E+00  2.39944297E-04
  6.82478750E-05  0.00000000E+00  1.23985181E-04  2.23978229E-05  0.00000000E+00
  1.40127255E-05  0.00000000E+00  0.00000000E+00 -1.28290170E-05  1.51116164E-05
  2.39156129E-05  0.00000000E+00  0.00000000E+00 -1.03047258E-04  5.88164159E-05
 -2.48962080E-04  2.31890128E-05 -1.48374301E-05 -5.73002333E-04  1.69948044E-04
  7.43047630E-06  1.35810460E-05  0.00000000E+00 -1.04816022E-06 -3.99511920E-05
  0.00000000E+00  2.03117352E-04  1.24205982E-04  0.00000000E+00 -4.68841074E-05
  4.44706655E-05  0.00000000E+00 -1.36308730E-06  0.00000000E+00  0.00000000E+00
 -8.20841403E-06 -1.18650581E-05  2.08601524E-05  0.00000000E+00  0.00000000E+00
  4.94910648E-05  1.10027808E-04  6.13281597E-05  0.00000000E+00  0.00000000E+00
 -3.40706048E-05 -8.15892849E-05  0.00000000E+00  7.88947286E-06  1.03630807E-05
  0.00000000E+00  0.00000000E+00 -8.53624326E-07 -2.47770759E-05  0.00000000E+00
 -1.44578441E-05 -3.45180693E-05  0.00000000E+00  0.00000000E+00 -3.22152268E-06
 -1.94463829E-05  7.25979935E-04  2.17063846E-05 -1.92327927E-05  3.03180145E-04
 -3.94876409E-04  1.65126458E-05  2.71925212E-05  0.00000000E+00 -6.61251872E-05
 -1.52940851E-04  0.00000000E+00  1.72712223E-04 -2.07333394E-04  0.00000000E+00
 -1.54695649E-04  1.43564071E-04  0.00000000E+00 -3.97671374E-06  0.00000000E+00
  0.00000000E+00 -2.95192951E-05 -9.79604052E-06 -5.17904268E-05  0.00000000E+00
  0.00000000E+00  8.01843308E-05  1.21481887E-04 -6.57443051E-05  0.00000000E+00
  0.00000000E+00  4.13192354E-05  1.99574485E-05  0.00000000E+00  3.08192949E-06
  3.27563522E-06  0.00000000E+00  0.00000000E+00 -7.75992384E-06 -2.38878438E-06
  0.00000000E+00  3.03146187E-06 -2.48907540E-05  0.00000000E+00  0.00000000E+00
  9.58125851E-05 -1.54067988E-04  2.37336115E-04  1.35911351E-03 -1.47426025E-04
 -6.65526736E-04  9.09553797E-04  6.32789583E-05 -7.09565979E-05  0.00000000E+00
  5.71901393E-04 -2.08493081E-03  0.00000000E+00  1.20805472E-04  5.00846179E-04
  0.00000000E+00  1.86032729E-04 -3.06796488E-04  0.00000000E+00 -1.27757699E-04
  0.00000000E+00  0.00000000E+00 -2.04116156E-04 -1.58567377E-04 -4.61689214E-04
  0.00000000E+00  0.00000000E+00 -6.05241751E-04 -9.19515989E-04 -4.35646266E-05
  0.00000000E+00  0.00000000E+00  6.02483353E-05  1.18214295E-04  0.00000000E+00
  8.50214464E-06  3.69394945E-05  0.00000000E+00  0.00000000E+00 -2.46554556E-05
 -3.76419770E-06  0.00000000E+00 -1.35584531E-04  1.58362428E-04  0.00000000E+00
  0.00000000E+00 -3.15279126E-04 -3.37198584E-05  9.76646068E-01 -9.88782812E-03
  4.35753379E-02  3.68354146E-03 -8.98133819E-04 -4.51857671E-04  2.13194020E-03
  0.00000000E+00  5.14986125E-04 -2.50743067E-03  0.00000000E+00 -6.58281310E-05
  8.11981310E-04  0.00000000E+00  1.04910134E-04 -6.50911366E-05  0.00000000E+00
 -1.94376620E-04  0.00000000E+00  0.00000000E+00 -7.41136399E-05 -4.36227828E-05
  4.08949752E-04  0.00000000E+00  0.00000000E+00  8.59794217E-04  4.85122612E-04
 -2.05787328E-04  0.00000000E+00  0.00000000E+00 -1.38564653E-04 -3.47080129E-05
  0.00000000E+00 -4.67927061E-06  7.04458767E-05  0.00000000E+00  0.00000000E+00
 -2.92856230E-05  1.04874335E-05  0.00000000E+00 -8.96218938E-05  9.17075800E-05
  0.00000000E+00  0.00000000E+00 -1.66475354E-04  2.05416262E-04  4.09937478E-04
  1.66775954E-03  1.11573941E-03 -2.40240211E-05  4.07163247E-05  2.32633356E-04
  0.00000000E+00  3.42681471E-04  8.73643928E-04  0.00000000E+00 -1.38396811E-04
  1.59370881E-04  0.00000000E+00  6.26175910E-06  0.00000000E+00  0.00000000E+00
  7.83724626E-05 -5.50043707E-05 -2.08929576E-04  0.00000000E+00  0.00000000E+00
 -3.40682468E-04  3.94353936E-04  9.76827836E-01 -9.14856256E-03  4.34794881E-02
  3.76686715E-04 -1.67284011E-03 -2.04374134E-03 -8.39695802E-04  0.00000000E+00
  2.06215597E-03  6.79084928E-04  0.00000000E+00 -3.84627552E-04  4.24925923E-04
  0.00000000E+00  1.98417286E-04 -3.21047860E-04  0.00000000E+00  2.37145978E-05
  0.00000000E+00  0.00000000E+00 -8.35937991E-05  6.86048378E-05  7.43544324E-04
  0.00000000E+00  0.00000000E+00 -2.50774310E-04  3.66667975E-04 -2.52252643E-04
  0.00000000E+00  0.00000000E+00  2.90276484E-04  2.18160502E-05  0.00000000E+00
 -7.87613607E-05  1.00165348E-05  0.00000000E+00  0.00000000E+00  2.35161516E-05