 Entering Gaussian System, Link 0=g16
 Input=hoono_a2_114p0655.gjf
 Output=hoono_a2_114p0655.log
 Initial command:
 /sw/contrib/gaussian/g16/B01/g16/l1.exe "/scr/Gau-31555.inp" -scrdir="/scr/"
 Entering Link 1 = /sw/contrib/gaussian/g16/B01/g16/l1.exe PID=     31556.
  
 Copyright (c) 1988-2017, Gaussian, Inc.  All Rights Reserved.
  
 This is part of the Gaussian(R) 16 program.  It is based on
 the Gaussian(R) 09 system (copyright 2009, Gaussian, Inc.),
 the Gaussian(R) 03 system (copyright 2003, Gaussian, Inc.),
 the Gaussian(R) 98 system (copyright 1998, Gaussian, Inc.),
 the Gaussian(R) 94 system (copyright 1995, Gaussian, Inc.),
 the Gaussian 92(TM) system (copyright 1992, Gaussian, Inc.),
 the Gaussian 90(TM) system (copyright 1990, Gaussian, Inc.),
 the Gaussian 88(TM) system (copyright 1988, Gaussian, Inc.),
 the Gaussian 86(TM) system (copyright 1986, Carnegie Mellon
 University), and the Gaussian 82(TM) system (copyright 1983,
 Carnegie Mellon University). Gaussian is a federally registered
 trademark of Gaussian, Inc.
  
 This software contains proprietary and confidential information,
 including trade secrets, belonging to Gaussian, Inc.
  
 This software is provided under written license and may be
 used, copied, transmitted, or stored only in accord with that
 written license.
  
 The following legend is applicable only to US Government
 contracts under FAR:
  
                    RESTRICTED RIGHTS LEGEND
  
 Use, reproduction and disclosure by the US Government is
 subject to restrictions as set forth in subparagraphs (a)
 and (c) of the Commercial Computer Software - Restricted
 Rights clause in FAR 52.227-19.
  
 Gaussian, Inc.
 340 Quinnipiac St., Bldg. 40, Wallingford CT 06492
  
  
 ---------------------------------------------------------------
 Warning -- This program may not be used in any manner that
 competes with the business of Gaussian, Inc. or will provide
 assistance to any competitor of Gaussian, Inc.  The licensee
 of this program is prohibited from giving any competitor of
 Gaussian, Inc. access to this program.  By using this program,
 the user acknowledges that Gaussian, Inc. is engaged in the
 business of creating and licensing software in the field of
 computational chemistry and represents and warrants to the
 licensee that it is not a competitor of Gaussian, Inc. and that
 it will not use this program in any manner prohibited above.
 ---------------------------------------------------------------
  

 Cite this work as:
 Gaussian 16, Revision B.01,
 M. J. Frisch, G. W. Trucks, H. B. Schlegel, G. E. Scuseria, 
 M. A. Robb, J. R. Cheeseman, G. Scalmani, V. Barone, 
 G. A. Petersson, H. Nakatsuji, X. Li, M. Caricato, A. V. Marenich, 
 J. Bloino, B. G. Janesko, R. Gomperts, B. Mennucci, H. P. Hratchian, 
 J. V. Ortiz, A. F. Izmaylov, J. L. Sonnenberg, D. Williams-Young, 
 F. Ding, F. Lipparini, F. Egidi, J. Goings, B. Peng, A. Petrone, 
 T. Henderson, D. Ranasinghe, V. G. Zakrzewski, J. Gao, N. Rega, 
 G. Zheng, W. Liang, M. Hada, M. Ehara, K. Toyota, R. Fukuda, 
 J. Hasegawa, M. Ishida, T. Nakajima, Y. Honda, O. Kitao, H. Nakai, 
 T. Vreven, K. Throssell, J. A. Montgomery, Jr., J. E. Peralta, 
 F. Ogliaro, M. J. Bearpark, J. J. Heyd, E. N. Brothers, K. N. Kudin, 
 V. N. Staroverov, T. A. Keith, R. Kobayashi, J. Normand, 
 K. Raghavachari, A. P. Rendell, J. C. Burant, S. S. Iyengar, 
 J. Tomasi, M. Cossi, J. M. Millam, M. Klene, C. Adamo, R. Cammi, 
 J. W. Ochterski, R. L. Martin, K. Morokuma, O. Farkas, 
 J. B. Foresman, and D. J. Fox, Gaussian, Inc., Wallingford CT, 2016.
 
 ******************************************
 Gaussian 16:  ES64L-G16RevB.01 20-Dec-2017
                 6-Mar-2022 
 ******************************************
 %nproc=28
 Will use up to   28 processors via shared memory.
 %mem=120GB
 %chk=hoono_a2_114p0655.chk
 ---------------------------------------
 #p freq mp2/aug-cc-pvtz density=current
 ---------------------------------------
 1/10=4,30=1,38=1/1,3;
 2/12=2,17=6,18=5,40=1/2;
 3/5=16,6=1,7=10,11=9,25=1,30=1,71=2,140=1/1,2,3;
 4//1;
 5/5=2,38=5,98=1/2;
 8/6=3,8=1,10=1,19=11,30=-1/1;
 9/15=3,16=-3/6;
 11/6=1,8=1,15=11,17=12,24=-1,27=1,28=-2,29=300,32=6,42=3/1,2,10;
 10/6=2,21=1/2;
 8/6=4,8=1,10=1,19=11,30=-1/11,4;
 10/5=1,20=4/2;
 11/12=2,14=11,16=1,17=2,28=-2,42=3,76=2/2,10,12;
 6/7=2,8=2,9=2,10=2,22=-1/1;
 7/8=1,10=1,12=2,25=1,44=2/1,2,3,16;
 1/10=4,30=1/3;
 99//99;
 Leave Link    1 at Sun Mar  6 19:29:48 2022, MaxMem= 16106127360 cpu:               2.3 elap:               0.1
 (Enter /sw/contrib/gaussian/g16/B01/g16/l101.exe)
 -----
 title
 -----
 Symbolic Z-matrix:
 Charge =  0 Multiplicity = 1
 H
 O                    1    r1
 O                    2    r2       1    a1
 N                    3    r3       2    a2       1    d1       0
 O                    4    r4       3    a3       2    d2       0
       Variables:
  r1                    0.98538                  
  r2                    1.42674                  
  r3                    1.38111                  
  r4                    1.19479                  
  a1                  100.63551                  
  a2                  114.06556                  
  a3                  114.33392                  
  d1                    0.                       
  d2                    0.                       
 
 ITRead=  0  0  0  0  0
 MicOpt= -1 -1 -1 -1 -1
 NAtoms=      5 NQM=        5 NQMF=       0 NMMI=      0 NMMIF=      0
                NMic=       0 NMicF=      0.
                    Isotopes and Nuclear Properties:
 (Nuclear quadrupole moments (NQMom) in fm**2, nuclear magnetic moments (NMagM)
  in nuclear magnetons)

  Atom         1           2           3           4           5
 IAtWgt=           1          16          16          14          16
 AtmWgt=   1.0078250  15.9949146  15.9949146  14.0030740  15.9949146
 NucSpn=           1           0           0           2           0
 AtZEff=  -0.0000000  -0.0000000  -0.0000000  -0.0000000  -0.0000000
 NQMom=    0.0000000   0.0000000   0.0000000   2.0440000   0.0000000
 NMagM=    2.7928460   0.0000000   0.0000000   0.4037610   0.0000000
 AtZNuc=   1.0000000   8.0000000   8.0000000   7.0000000   8.0000000
 Leave Link  101 at Sun Mar  6 19:29:48 2022, MaxMem= 16106127360 cpu:               3.4 elap:               0.1
 (Enter /sw/contrib/gaussian/g16/B01/g16/l103.exe)

 GradGradGradGradGradGradGradGradGradGradGradGradGradGradGradGradGradGrad
 Berny optimization.
 Initialization pass.
                       ----------------------------
                       !    Initial Parameters    !
                       ! (Angstroms and Degrees)  !
 ----------------------                            ----------------------
 !      Name          Value   Derivative information (Atomic Units)     !
 ------------------------------------------------------------------------
 !       r1          0.9854   calculate D2E/DX2 analytically            !
 !       r2          1.4267   calculate D2E/DX2 analytically            !
 !       r3          1.3811   calculate D2E/DX2 analytically            !
 !       r4          1.1948   calculate D2E/DX2 analytically            !
 !       a1        100.6355   calculate D2E/DX2 analytically            !
 !       a2        114.0656   calculate D2E/DX2 analytically            !
 !       a3        114.3339   calculate D2E/DX2 analytically            !
 !       d1          0.0      calculate D2E/DX2 analytically            !
 !       d2          0.0      calculate D2E/DX2 analytically            !
 ------------------------------------------------------------------------
 Trust Radius=3.00D-01 FncErr=1.00D-07 GrdErr=1.00D-07 EigMax=2.50D+02 EigMin=1.00D-04
 Number of steps in this run=      2 maximum allowed number of steps=      2.
 GradGradGradGradGradGradGradGradGradGradGradGradGradGradGradGradGradGrad

 Leave Link  103 at Sun Mar  6 19:29:48 2022, MaxMem= 16106127360 cpu:               1.1 elap:               0.1
 (Enter /sw/contrib/gaussian/g16/B01/g16/l202.exe)
                          Input orientation:                          
 ---------------------------------------------------------------------
 Center     Atomic      Atomic             Coordinates (Angstroms)
 Number     Number       Type             X           Y           Z
 ---------------------------------------------------------------------
      1          1           0        0.000000    0.000000    0.000000
      2          8           0        0.000000    0.000000    0.985377
      3          8           0        1.402227    0.000000    1.248696
      4          7           0        2.188484    0.000000    0.113241
      5          8           0        1.573748    0.000000   -0.911268
 ---------------------------------------------------------------------
                    Distance matrix (angstroms):
                    1          2          3          4          5
     1  H    0.000000
     2  O    0.985377   0.000000
     3  O    1.877627   1.426737   0.000000
     4  N    2.191412   2.355862   1.381108   0.000000
     5  O    1.818542   2.464538   2.166763   1.194788   0.000000
 Stoichiometry    HNO3
 Framework group  CS[SG(HNO3)]
 Deg. of freedom     7
 Full point group                 CS      NOp   2
 Largest Abelian subgroup         CS      NOp   2
 Largest concise Abelian subgroup C1      NOp   1
                         Standard orientation:                         
 ---------------------------------------------------------------------
 Center     Atomic      Atomic             Coordinates (Angstroms)
 Number     Number       Type             X           Y           Z
 ---------------------------------------------------------------------
      1          1           0        1.128723   -0.589408    0.000000
      2          8           0        1.322863    0.376655    0.000000
      3          8           0       -0.000000    0.911081    0.000000
      4          7           0       -0.994555   -0.047209    0.000000
      5          8           0       -0.593718   -1.172753    0.000000
 ---------------------------------------------------------------------
 Rotational constants (GHZ):          21.5271861           7.9980412           5.8314647
 Leave Link  202 at Sun Mar  6 19:29:48 2022, MaxMem= 16106127360 cpu:               0.4 elap:               0.0
 (Enter /sw/contrib/gaussian/g16/B01/g16/l301.exe)
 Standard basis: Aug-CC-pVTZ (5D, 7F)
 Ernie: Thresh=  0.10000D-02 Tol=  0.10000D-05 Strict=F.
 Ernie:  12 primitive shells out of 131 were deleted.
 There are   166 symmetry adapted cartesian basis functions of A'  symmetry.
 There are    79 symmetry adapted cartesian basis functions of A"  symmetry.
 There are   136 symmetry adapted basis functions of A'  symmetry.
 There are    71 symmetry adapted basis functions of A"  symmetry.
   207 basis functions,   315 primitive gaussians,   245 cartesian basis functions
    16 alpha electrons       16 beta electrons
       nuclear repulsion energy       122.5171368842 Hartrees.
 IExCor=    0 DFT=F Ex=HF Corr=None ExCW=0 ScaHFX=  1.000000
 ScaDFX=  1.000000  1.000000  1.000000  1.000000 ScalE2=  1.000000  1.000000
 IRadAn=      5 IRanWt=     -1 IRanGd=            0 ICorTp=0 IEmpDi=  4
 NAtoms=    5 NActive=    5 NUniq=    5 SFac= 1.00D+00 NAtFMM=   60 NAOKFM=F Big=F
 Integral buffers will be    131072 words long.
 Raffenetti 1 integral format.
 Two-electron integral symmetry is turned on.
 Leave Link  301 at Sun Mar  6 19:29:48 2022, MaxMem= 16106127360 cpu:               2.5 elap:               0.1
 (Enter /sw/contrib/gaussian/g16/B01/g16/l302.exe)
 NPDir=0 NMtPBC=     1 NCelOv=     1 NCel=       1 NClECP=     1 NCelD=      1
         NCelK=      1 NCelE2=     1 NClLst=     1 CellRange=     0.0.
 One-electron integrals computed using PRISM.
 One-electron integral symmetry used in STVInt
 NBasis=   207 RedAO= T EigKep=  1.31D-04  NBF=   136    71
 NBsUse=   207 1.00D-06 EigRej= -1.00D+00 NBFU=   136    71
 Leave Link  302 at Sun Mar  6 19:29:49 2022, MaxMem= 16106127360 cpu:               5.5 elap:               0.2
 (Enter /sw/contrib/gaussian/g16/B01/g16/l303.exe)
 DipDrv:  MaxL=1.
 Leave Link  303 at Sun Mar  6 19:29:49 2022, MaxMem= 16106127360 cpu:               3.5 elap:               0.2
 (Enter /sw/contrib/gaussian/g16/B01/g16/l401.exe)
 ExpMin= 2.53D-02 ExpMax= 1.53D+04 ExpMxC= 5.22D+02 IAcc=3 IRadAn=         5 AccDes= 0.00D+00
 Harris functional with IExCor=  205 and IRadAn=       5 diagonalized for initial guess.
 HarFok:  IExCor=  205 AccDes= 0.00D+00 IRadAn=         5 IDoV= 1 UseB2=F ITyADJ=14
 ICtDFT=  3500011 ScaDFX=  1.000000  1.000000  1.000000  1.000000
 FoFCou: FMM=F IPFlag=           0 FMFlag=      100000 FMFlg1=           0
         NFxFlg=           0 DoJE=T BraDBF=F KetDBF=T FulRan=T
         wScrn=  0.000000 ICntrl=       500 IOpCl=  0 I1Cent=   200000004 NGrid=           0
         NMat0=    1 NMatS0=      1 NMatT0=    0 NMatD0=    1 NMtDS0=    0 NMtDT0=    0
 Petite list used in FoFCou.
 Harris En= -279.644688409869    
 JPrj=0 DoOrth=F DoCkMO=F.
 Initial guess orbital symmetries:
       Occupied  (A') (A') (A') (A') (A') (A') (A') (A') (A') (A')
                 (A") (A') (A") (A') (A") (A')
       Virtual   (A") (A') (A') (A') (A') (A") (A') (A') (A') (A')
                 (A") (A') (A") (A') (A') (A") (A') (A') (A") (A')
                 (A') (A') (A') (A') (A") (A') (A') (A') (A") (A')
                 (A') (A") (A") (A') (A') (A") (A') (A") (A') (A")
                 (A') (A") (A') (A") (A') (A') (A') (A') (A") (A')
                 (A') (A") (A') (A") (A') (A") (A') (A') (A') (A")
                 (A') (A') (A") (A') (A') (A') (A") (A") (A') (A')
                 (A") (A') (A") (A") (A') (A') (A") (A') (A') (A')
                 (A") (A') (A') (A") (A') (A") (A") (A') (A') (A')
                 (A') (A") (A') (A") (A') (A') (A") (A') (A") (A')
                 (A") (A') (A') (A") (A") (A') (A') (A') (A") (A')
                 (A") (A') (A') (A') (A") (A') (A') (A') (A") (A')
                 (A") (A') (A') (A") (A") (A") (A") (A') (A') (A')
                 (A') (A') (A') (A") (A') (A") (A') (A") (A') (A')
                 (A") (A') (A") (A') (A') (A") (A') (A') (A') (A")
                 (A') (A') (A') (A") (A') (A") (A") (A') (A") (A')
                 (A') (A") (A") (A') (A") (A') (A') (A") (A") (A')
                 (A") (A") (A") (A') (A") (A') (A') (A') (A') (A")
                 (A') (A') (A') (A') (A') (A') (A') (A') (A') (A')
                 (A')
 The electronic state of the initial guess is 1-A'.
 Leave Link  401 at Sun Mar  6 19:29:49 2022, MaxMem= 16106127360 cpu:               6.8 elap:               0.3
 (Enter /sw/contrib/gaussian/g16/B01/g16/l502.exe)
 Keep R1 ints in memory in symmetry-blocked form, NReq=348887737.
 FoFCou: FMM=F IPFlag=           0 FMFlag=           0 FMFlg1=           0
         NFxFlg=           0 DoJE=F BraDBF=F KetDBF=F FulRan=T
         wScrn=  0.000000 ICntrl=       600 IOpCl=  0 I1Cent=           0 NGrid=           0
         NMat0=    1 NMatS0=  21528 NMatT0=    0 NMatD0=    1 NMtDS0=    0 NMtDT0=    0
 Petite list used in FoFCou.
 Closed shell SCF:
 Using DIIS extrapolation, IDIIS=  1040.
 NGot= 16106127360 LenX= 15988850015 LenY= 15988789549
 Requested convergence on RMS density matrix=1.00D-08 within 128 cycles.
 Requested convergence on MAX density matrix=1.00D-06.
 Requested convergence on             energy=1.00D-06.
 No special actions if energy rises.

 Cycle   1  Pass 1  IDiag  1:
 E= -279.364455936454    
 DIIS: error= 2.75D-02 at cycle   1 NSaved=   1.
 NSaved= 1 IEnMin= 1 EnMin= -279.364455936454     IErMin= 1 ErrMin= 2.75D-02
 ErrMax= 2.75D-02  0.00D+00 EMaxC= 1.00D-01 BMatC= 4.50D-01 BMatP= 4.50D-01
 IDIUse=3 WtCom= 7.25D-01 WtEn= 2.75D-01
 Coeff-Com:  0.100D+01
 Coeff-En:   0.100D+01
 Coeff:      0.100D+01
 Gap=     0.498 Goal=   None    Shift=    0.000
 GapD=    0.498 DampG=2.000 DampE=0.500 DampFc=1.0000 IDamp=-1.
 RMSDP=1.67D-03 MaxDP=8.76D-02              OVMax= 1.22D-01

 Cycle   2  Pass 1  IDiag  1:
 E= -279.446411449604     Delta-E=       -0.081955513150 Rises=F Damp=F
 DIIS: error= 1.92D-02 at cycle   2 NSaved=   2.
 NSaved= 2 IEnMin= 2 EnMin= -279.446411449604     IErMin= 2 ErrMin= 1.92D-02
 ErrMax= 1.92D-02  0.00D+00 EMaxC= 1.00D-01 BMatC= 8.59D-02 BMatP= 4.50D-01
 IDIUse=3 WtCom= 8.08D-01 WtEn= 1.92D-01
 Coeff-Com:  0.218D+00 0.782D+00
 Coeff-En:   0.767D-01 0.923D+00
 Coeff:      0.191D+00 0.809D+00
 Gap=     0.561 Goal=   None    Shift=    0.000
 RMSDP=9.65D-04 MaxDP=3.64D-02 DE=-8.20D-02 OVMax= 9.12D-02

 Cycle   3  Pass 1  IDiag  1:
 E= -279.484155630705     Delta-E=       -0.037744181100 Rises=F Damp=F
 DIIS: error= 1.10D-02 at cycle   3 NSaved=   3.
 NSaved= 3 IEnMin= 3 EnMin= -279.484155630705     IErMin= 3 ErrMin= 1.10D-02
 ErrMax= 1.10D-02  0.00D+00 EMaxC= 1.00D-01 BMatC= 3.09D-02 BMatP= 8.59D-02
 IDIUse=3 WtCom= 8.90D-01 WtEn= 1.10D-01
 Coeff-Com: -0.348D-01 0.365D+00 0.670D+00
 Coeff-En:   0.000D+00 0.218D+00 0.782D+00
 Coeff:     -0.309D-01 0.348D+00 0.683D+00
 Gap=     0.541 Goal=   None    Shift=    0.000
 RMSDP=4.10D-04 MaxDP=1.58D-02 DE=-3.77D-02 OVMax= 3.91D-02

 Cycle   4  Pass 1  IDiag  1:
 E= -279.505277712852     Delta-E=       -0.021122082147 Rises=F Damp=F
 DIIS: error= 1.61D-03 at cycle   4 NSaved=   4.
 NSaved= 4 IEnMin= 4 EnMin= -279.505277712852     IErMin= 4 ErrMin= 1.61D-03
 ErrMax= 1.61D-03  0.00D+00 EMaxC= 1.00D-01 BMatC= 5.93D-04 BMatP= 3.09D-02
 IDIUse=3 WtCom= 9.84D-01 WtEn= 1.61D-02
 Coeff-Com: -0.119D-01 0.462D-01 0.152D+00 0.813D+00
 Coeff-En:   0.000D+00 0.000D+00 0.000D+00 0.100D+01
 Coeff:     -0.117D-01 0.455D-01 0.150D+00 0.816D+00
 Gap=     0.528 Goal=   None    Shift=    0.000
 RMSDP=9.88D-05 MaxDP=2.31D-03 DE=-2.11D-02 OVMax= 1.18D-02

 Cycle   5  Pass 1  IDiag  1:
 E= -279.506085708317     Delta-E=       -0.000807995465 Rises=F Damp=F
 DIIS: error= 1.08D-03 at cycle   5 NSaved=   5.
 NSaved= 5 IEnMin= 5 EnMin= -279.506085708317     IErMin= 5 ErrMin= 1.08D-03
 ErrMax= 1.08D-03  0.00D+00 EMaxC= 1.00D-01 BMatC= 1.02D-04 BMatP= 5.93D-04
 IDIUse=3 WtCom= 9.89D-01 WtEn= 1.08D-02
 Coeff-Com:  0.537D-02-0.659D-01-0.110D+00 0.615D-01 0.111D+01
 Coeff-En:   0.000D+00 0.000D+00 0.000D+00 0.000D+00 0.100D+01
 Coeff:      0.532D-02-0.652D-01-0.109D+00 0.608D-01 0.111D+01
 Gap=     0.531 Goal=   None    Shift=    0.000
 RMSDP=7.96D-05 MaxDP=2.12D-03 DE=-8.08D-04 OVMax= 1.29D-02

 Cycle   6  Pass 1  IDiag  1:
 E= -279.506446870560     Delta-E=       -0.000361162243 Rises=F Damp=F
 DIIS: error= 3.28D-04 at cycle   6 NSaved=   6.
 NSaved= 6 IEnMin= 6 EnMin= -279.506446870560     IErMin= 6 ErrMin= 3.28D-04
 ErrMax= 3.28D-04  0.00D+00 EMaxC= 1.00D-01 BMatC= 2.42D-05 BMatP= 1.02D-04
 IDIUse=3 WtCom= 9.97D-01 WtEn= 3.28D-03
 Coeff-Com:  0.188D-02-0.705D-02-0.177D-01-0.184D+00 0.161D-01 0.119D+01
 Coeff-En:   0.000D+00 0.000D+00 0.000D+00 0.000D+00 0.000D+00 0.100D+01
 Coeff:      0.187D-02-0.702D-02-0.176D-01-0.184D+00 0.161D-01 0.119D+01
 Gap=     0.532 Goal=   None    Shift=    0.000
 RMSDP=4.66D-05 MaxDP=1.08D-03 DE=-3.61D-04 OVMax= 6.09D-03

 Cycle   7  Pass 1  IDiag  1:
 E= -279.506532869167     Delta-E=       -0.000085998607 Rises=F Damp=F
 DIIS: error= 1.35D-04 at cycle   7 NSaved=   7.
 NSaved= 7 IEnMin= 7 EnMin= -279.506532869167     IErMin= 7 ErrMin= 1.35D-04
 ErrMax= 1.35D-04  0.00D+00 EMaxC= 1.00D-01 BMatC= 3.61D-06 BMatP= 2.42D-05
 IDIUse=3 WtCom= 9.99D-01 WtEn= 1.35D-03
 Coeff-Com: -0.109D-02 0.115D-01 0.251D-01 0.163D-01-0.183D+00-0.150D+00
 Coeff-Com:  0.128D+01
 Coeff-En:   0.000D+00 0.000D+00 0.000D+00 0.000D+00 0.000D+00 0.000D+00
 Coeff-En:   0.100D+01
 Coeff:     -0.109D-02 0.114D-01 0.251D-01 0.163D-01-0.182D+00-0.149D+00
 Coeff:      0.128D+01
 Gap=     0.532 Goal=   None    Shift=    0.000
 RMSDP=1.76D-05 MaxDP=5.13D-04 DE=-8.60D-05 OVMax= 2.34D-03

 Cycle   8  Pass 1  IDiag  1:
 E= -279.506544977935     Delta-E=       -0.000012108768 Rises=F Damp=F
 DIIS: error= 4.73D-05 at cycle   8 NSaved=   8.
 NSaved= 8 IEnMin= 8 EnMin= -279.506544977935     IErMin= 8 ErrMin= 4.73D-05
 ErrMax= 4.73D-05  0.00D+00 EMaxC= 1.00D-01 BMatC= 6.02D-07 BMatP= 3.61D-06
 IDIUse=1 WtCom= 1.00D+00 WtEn= 0.00D+00
 Coeff-Com: -0.561D-03 0.410D-02 0.974D-02 0.251D-01-0.579D-01-0.192D+00
 Coeff-Com:  0.353D+00 0.859D+00
 Coeff:     -0.561D-03 0.410D-02 0.974D-02 0.251D-01-0.579D-01-0.192D+00
 Coeff:      0.353D+00 0.859D+00
 Gap=     0.532 Goal=   None    Shift=    0.000
 RMSDP=5.47D-06 MaxDP=1.55D-04 DE=-1.21D-05 OVMax= 6.55D-04

 Cycle   9  Pass 1  IDiag  1:
 E= -279.506546369419     Delta-E=       -0.000001391484 Rises=F Damp=F
 DIIS: error= 2.53D-05 at cycle   9 NSaved=   9.
 NSaved= 9 IEnMin= 9 EnMin= -279.506546369419     IErMin= 9 ErrMin= 2.53D-05
 ErrMax= 2.53D-05  0.00D+00 EMaxC= 1.00D-01 BMatC= 1.17D-07 BMatP= 6.02D-07
 IDIUse=1 WtCom= 1.00D+00 WtEn= 0.00D+00
 Coeff-Com:  0.242D-03-0.257D-02-0.535D-02-0.563D-02 0.472D-01 0.494D-01
 Coeff-Com: -0.340D+00 0.310D-01 0.123D+01
 Coeff:      0.242D-03-0.257D-02-0.535D-02-0.563D-02 0.472D-01 0.494D-01
 Coeff:     -0.340D+00 0.310D-01 0.123D+01
 Gap=     0.532 Goal=   None    Shift=    0.000
 RMSDP=2.47D-06 MaxDP=6.65D-05 DE=-1.39D-06 OVMax= 2.59D-04

 Cycle  10  Pass 1  IDiag  1:
 E= -279.506546635517     Delta-E=       -0.000000266098 Rises=F Damp=F
 DIIS: error= 5.92D-06 at cycle  10 NSaved=  10.
 NSaved=10 IEnMin=10 EnMin= -279.506546635517     IErMin=10 ErrMin= 5.92D-06
 ErrMax= 5.92D-06  0.00D+00 EMaxC= 1.00D-01 BMatC= 8.36D-09 BMatP= 1.17D-07
 IDIUse=1 WtCom= 1.00D+00 WtEn= 0.00D+00
 Coeff-Com: -0.392D-04 0.507D-03 0.122D-02-0.187D-02-0.111D-01 0.492D-02
 Coeff-Com:  0.745D-01-0.535D-01-0.444D+00 0.143D+01
 Coeff:     -0.392D-04 0.507D-03 0.122D-02-0.187D-02-0.111D-01 0.492D-02
 Coeff:      0.745D-01-0.535D-01-0.444D+00 0.143D+01
 Gap=     0.532 Goal=   None    Shift=    0.000
 RMSDP=7.13D-07 MaxDP=2.62D-05 DE=-2.66D-07 OVMax= 7.54D-05

 Cycle  11  Pass 1  IDiag  1:
 E= -279.506546660681     Delta-E=       -0.000000025164 Rises=F Damp=F
 DIIS: error= 2.23D-06 at cycle  11 NSaved=  11.
 NSaved=11 IEnMin=11 EnMin= -279.506546660681     IErMin=11 ErrMin= 2.23D-06
 ErrMax= 2.23D-06  0.00D+00 EMaxC= 1.00D-01 BMatC= 8.13D-10 BMatP= 8.36D-09
 IDIUse=1 WtCom= 1.00D+00 WtEn= 0.00D+00
 Coeff-Com: -0.151D-04 0.149D-03 0.304D-03 0.943D-03-0.184D-02-0.721D-02
 Coeff-Com:  0.164D-01 0.207D-01-0.350D-01-0.359D+00 0.136D+01
 Coeff:     -0.151D-04 0.149D-03 0.304D-03 0.943D-03-0.184D-02-0.721D-02
 Coeff:      0.164D-01 0.207D-01-0.350D-01-0.359D+00 0.136D+01
 Gap=     0.532 Goal=   None    Shift=    0.000
 RMSDP=2.43D-07 MaxDP=9.00D-06 DE=-2.52D-08 OVMax= 2.84D-05

 Cycle  12  Pass 1  IDiag  1:
 E= -279.506546663636     Delta-E=       -0.000000002955 Rises=F Damp=F
 DIIS: error= 6.73D-07 at cycle  12 NSaved=  12.
 NSaved=12 IEnMin=12 EnMin= -279.506546663636     IErMin=12 ErrMin= 6.73D-07
 ErrMax= 6.73D-07  0.00D+00 EMaxC= 1.00D-01 BMatC= 8.18D-11 BMatP= 8.13D-10
 IDIUse=1 WtCom= 1.00D+00 WtEn= 0.00D+00
 Coeff-Com:  0.285D-05-0.471D-04-0.999D-04 0.101D-03 0.112D-02-0.503D-03
 Coeff-Com: -0.739D-02 0.555D-02 0.396D-01-0.983D-01-0.205D+00 0.127D+01
 Coeff:      0.285D-05-0.471D-04-0.999D-04 0.101D-03 0.112D-02-0.503D-03
 Coeff:     -0.739D-02 0.555D-02 0.396D-01-0.983D-01-0.205D+00 0.127D+01
 Gap=     0.532 Goal=   None    Shift=    0.000
 RMSDP=8.22D-08 MaxDP=2.67D-06 DE=-2.96D-09 OVMax= 9.48D-06

 Cycle  13  Pass 1  IDiag  1:
 E= -279.506546663922     Delta-E=       -0.000000000286 Rises=F Damp=F
 DIIS: error= 1.55D-07 at cycle  13 NSaved=  13.
 NSaved=13 IEnMin=13 EnMin= -279.506546663922     IErMin=13 ErrMin= 1.55D-07
 ErrMax= 1.55D-07  0.00D+00 EMaxC= 1.00D-01 BMatC= 6.59D-12 BMatP= 8.18D-11
 IDIUse=1 WtCom= 1.00D+00 WtEn= 0.00D+00
 Coeff-Com:  0.117D-05-0.106D-04-0.143D-04-0.119D-03 0.211D-04 0.895D-03
 Coeff-Com: -0.815D-03-0.250D-02-0.296D-02 0.545D-01-0.124D+00-0.150D+00
 Coeff-Com:  0.122D+01
 Coeff:      0.117D-05-0.106D-04-0.143D-04-0.119D-03 0.211D-04 0.895D-03
 Coeff:     -0.815D-03-0.250D-02-0.296D-02 0.545D-01-0.124D+00-0.150D+00
 Coeff:      0.122D+01
 Gap=     0.532 Goal=   None    Shift=    0.000
 RMSDP=2.12D-08 MaxDP=6.22D-07 DE=-2.86D-10 OVMax= 2.01D-06

 Cycle  14  Pass 1  IDiag  1:
 E= -279.506546663942     Delta-E=       -0.000000000020 Rises=F Damp=F
 DIIS: error= 4.06D-08 at cycle  14 NSaved=  14.
 NSaved=14 IEnMin=14 EnMin= -279.506546663942     IErMin=14 ErrMin= 4.06D-08
 ErrMax= 4.06D-08  0.00D+00 EMaxC= 1.00D-01 BMatC= 4.61D-13 BMatP= 6.59D-12
 IDIUse=1 WtCom= 1.00D+00 WtEn= 0.00D+00
 Coeff-Com: -0.310D-06 0.450D-05 0.887D-05-0.260D-05-0.110D-03 0.473D-04
 Coeff-Com:  0.633D-03-0.277D-03-0.344D-02 0.733D-02 0.166D-01-0.887D-01
 Coeff-Com: -0.136D-01 0.108D+01
 Coeff:     -0.310D-06 0.450D-05 0.887D-05-0.260D-05-0.110D-03 0.473D-04
 Coeff:      0.633D-03-0.277D-03-0.344D-02 0.733D-02 0.166D-01-0.887D-01
 Coeff:     -0.136D-01 0.108D+01
 Gap=     0.532 Goal=   None    Shift=    0.000
 RMSDP=4.17D-09 MaxDP=1.03D-07 DE=-1.96D-11 OVMax= 4.57D-07

 SCF Done:  E(RHF) =  -279.506546664     A.U. after   14 cycles
            NFock= 14  Conv=0.42D-08     -V/T= 2.0023
 KE= 2.788789632506D+02 PE=-9.059053631703D+02 EE= 2.250027163715D+02
 Leave Link  502 at Sun Mar  6 19:29:53 2022, MaxMem= 16106127360 cpu:              55.3 elap:               3.7
 (Enter /sw/contrib/gaussian/g16/B01/g16/l801.exe)
 ExpMin= 2.53D-02 ExpMax= 1.53D+04 ExpMxC= 5.22D+02 IAcc=3 IRadAn=         5 AccDes= 0.00D+00
 HarFok:  IExCor=  205 AccDes= 0.00D+00 IRadAn=         5 IDoV=-2 UseB2=F ITyADJ=14
 ICtDFT= 12500011 ScaDFX=  1.000000  1.000000  1.000000  1.000000
 DSYEVD-2 returned Info=          93 IAlg= 4 N=    46 NDim=    46 NE2=   350130240 trying  DSYEV.
 Largest valence mixing into a core orbital is  2.07D-04
 Largest core mixing into a valence orbital is  3.10D-05
 Range of M.O.s used for correlation:     5   207
 NBasis=   207 NAE=    16 NBE=    16 NFC=     4 NFV=     0
 NROrb=    203 NOA=    12 NOB=    12 NVA=   191 NVB=   191

 **** Warning!!: The largest alpha MO coefficient is  0.15848228D+02

 Leave Link  801 at Sun Mar  6 19:29:53 2022, MaxMem= 16106127360 cpu:               2.2 elap:               0.1
 (Enter /sw/contrib/gaussian/g16/B01/g16/l906.exe)
 Frozen-core derivative calculation, NFC=   4 NFV=   0.
 FulOut=F Deriv=T AODrv=T NAtomX=     5
   MMem=           0  MDisk=          12 MDiskD=          12
  W3Min=      811440 MinDsk=     2425030 NBas6D=         245
 NBas2D=       30762    NTT=       30135    LW2=     7400000
    MDV= 16105571616 MDiskM=      328644 NBas2p=       30759
 Disk-based method using ON**2 memory for 12 occupieds at a time.
 Permanent disk used for amplitudes=    11516536 words.
 Estimated scratch disk usage=   321863743 words.
 IMap=   1   2   3   4   5   6   7   8   9  10  11  12  13  14  15  16
 Actual    scratch disk usage=   310892607 words.
 JobTyp=1 Pass  1:  I=   5 to  16 NPSUse= 28 ParTrn=T ParDer=T DoDerP=T.
 (rs|ai) integrals will be sorted in core.
 Spin components of T(2) and E(2):
     alpha-alpha T2 =       0.3479156841D-01 E2=     -0.1244928072D+00
     alpha-beta  T2 =       0.1845701005D+00 E2=     -0.6996455488D+00
     beta-beta   T2 =       0.3479156841D-01 E2=     -0.1244928072D+00
 The integrals were generated   1 times.
 ANorm=    0.1119889833D+01
 E2 =    -0.9486311633D+00 EUMP2 =    -0.28045517782724D+03
 Leave Link  906 at Sun Mar  6 19:31:30 2022, MaxMem= 16106127360 cpu:            2709.4 elap:              96.9
 (Enter /sw/contrib/gaussian/g16/B01/g16/l1101.exe)
 Using compressed Sx but separate Hx and Fx, NAtomX=     5.
 Will process      6 centers per pass.
 Leave Link 1101 at Sun Mar  6 19:31:30 2022, MaxMem= 16106127360 cpu:               5.1 elap:               0.2
 (Enter /sw/contrib/gaussian/g16/B01/g16/l1102.exe)
 Leave Link 1102 at Sun Mar  6 19:31:30 2022, MaxMem= 16106127360 cpu:               1.7 elap:               0.1
 (Enter /sw/contrib/gaussian/g16/B01/g16/l1110.exe)
 Forming Gx(P) for the SCF density, NAtomX=     5.
 Integral derivatives from FoFJK, PRISM(SPDF).
 Do as many integral derivatives as possible in FoFJK.
 G2DrvN: MDV=   16106126844.
 G2DrvN: will do     6 centers at a time, making    1 passes.
 Calling FoFCou, ICntrl=  3107 FMM=F I1Cent=   0 AccDes= 0.00D+00.
 FoFJK:  IHMeth= 1 ICntrl=    3107 DoSepK=F KAlg= 0 I1Cent=           0 FoldK=F
 IRaf=         0 NMat=       1 IRICut=       1 DoRegI=T DoRafI=F ISym2E= 1 IDoP0=0 IntGTp=1.
 FoFCou: FMM=F IPFlag=           0 FMFlag=      100000 FMFlg1=           0
         NFxFlg=           0 DoJE=F BraDBF=F KetDBF=F FulRan=T
         wScrn=  0.000000 ICntrl=      3107 IOpCl=  0 I1Cent=           0 NGrid=           0
         NMat0=    1 NMatS0=      1 NMatT0=    0 NMatD0=    1 NMtDS0=    0 NMtDT0=    0
 Petite list used in FoFCou.
 End of G2Drv F.D. properties file   721 does not exist.
 End of G2Drv F.D. properties file   722 does not exist.
 End of G2Drv F.D. properties file   788 does not exist.
 Leave Link 1110 at Sun Mar  6 19:31:33 2022, MaxMem= 16106127360 cpu:              88.0 elap:               3.2
 (Enter /sw/contrib/gaussian/g16/B01/g16/l1002.exe)
 Minotr:  Closed shell wavefunction.
          IDoAtm=11111
          Frozen-core window.
          Direct CPHF calculation.
          Differentiating once with respect to electric field.
                with respect to dipole field.
          Differentiating once with respect to nuclear coordinates.
          Requested convergence is 1.0D-08 RMS, and 1.0D-07 maximum.
          Secondary convergence is 1.0D-12 RMS, and 1.0D-12 maximum.
          NewPWx=T KeepS1=T KeepF1=T KeepIn=T MapXYZ=F SortEE=F KeepMc=T.
 Keep R1 ints in memory in symmetry-blocked form, NReq=348888983.
 FoFCou: FMM=F IPFlag=           0 FMFlag=           0 FMFlg1=           0
         NFxFlg=           0 DoJE=F BraDBF=F KetDBF=F FulRan=T
         wScrn=  0.000000 ICntrl=       600 IOpCl=  0 I1Cent=           0 NGrid=           0
         NMat0=    1 NMatS0=  21528 NMatT0=    0 NMatD0=    1 NMtDS0=    0 NMtDT0=    0
 Petite list used in FoFCou.
          MDV=   16106127360 using IRadAn=       1.
          Solving linear equations simultaneously, MaxMat=       0.
          There are    18 degrees of freedom in the 1st order CPHF.  IDoFFX=6 NUNeed=    18.
     15 vectors produced by pass  0 Test12= 1.70D-14 5.56D-09 XBig12= 7.91D+00 1.23D+00.
 AX will form    15 AO Fock derivatives at one time.
     15 vectors produced by pass  1 Test12= 1.70D-14 5.56D-09 XBig12= 1.35D+00 2.22D-01.
     15 vectors produced by pass  2 Test12= 1.70D-14 5.56D-09 XBig12= 6.77D-02 5.84D-02.
     15 vectors produced by pass  3 Test12= 1.70D-14 5.56D-09 XBig12= 1.97D-03 1.08D-02.
     15 vectors produced by pass  4 Test12= 1.70D-14 5.56D-09 XBig12= 4.44D-05 1.22D-03.
     15 vectors produced by pass  5 Test12= 1.70D-14 5.56D-09 XBig12= 6.31D-07 1.18D-04.
     15 vectors produced by pass  6 Test12= 1.70D-14 5.56D-09 XBig12= 4.79D-09 1.17D-05.
     14 vectors produced by pass  7 Test12= 1.70D-14 5.56D-09 XBig12= 3.53D-11 8.45D-07.
      3 vectors produced by pass  8 Test12= 1.70D-14 5.56D-09 XBig12= 2.42D-13 6.23D-08.
      1 vectors produced by pass  9 Test12= 1.70D-14 5.56D-09 XBig12= 1.66D-15 6.81D-09.
 InvSVY:  IOpt=1 It=  1 EMax= 1.33D-15
 Solved reduced A of dimension   123 with    15 vectors.
 FullF1:  Do perturbations      1 to      18.
 Saving first derivative matrices.
 End of Minotr F.D. properties file   721 does not exist.
 End of Minotr F.D. properties file   722 does not exist.
 End of Minotr F.D. properties file   788 does not exist.
 Leave Link 1002 at Sun Mar  6 19:31:36 2022, MaxMem= 16106127360 cpu:              77.6 elap:               2.9
 (Enter /sw/contrib/gaussian/g16/B01/g16/l811.exe)
 MDV= 16106127360.
 Form MO integral derivatives with frozen-active canonical formalism.
 MOERI=1 MOERIx=1 NAtoms=     5 NAtomX=     5.
 Discarding MO integrals.
 MO basis two electron integral derivatives will not be stored on disk.
 IAlg= 3 DoFC=T DoPWx=T Debug=F.
 Frozen-core window:  NFC=   4 NFV=   0.
 Reordered first order wavefunction length =     18678272
 In DefCFB: NBatch=  1 ICI= 16 ICA=191 LFMax= 96
            Large arrays: LIAPS=   619940160 LIARS=   288257200 words.
 In StABat: MaxSiz= 55 MinSiz= 25 NAtomB=  5
 DoIAMN: NPSUse= 28.
 Leave Link  811 at Sun Mar  6 19:32:59 2022, MaxMem= 16106127360 cpu:            2316.8 elap:              82.9
 (Enter /sw/contrib/gaussian/g16/B01/g16/l804.exe)
 Frozen-core window:  NFC=   4 NFV=   0.
 Closed-shell transformation, MDV= 16106127360 ITran=4 ISComp=1.
 Semi-Direct transformation.
 ModeAB=           2 MOrb=            16 LenV=   16104919953
 LASXX=     67341636 LTotXX=    67341636 LenRXX=    67341636
 LTotAB=    68301760 MaxLAS=    99807120 LenRXY=    99807120
 NonZer=   134683272 LenScr=   202817536 LnRSAI=           0
 LnScr1=           0 LExtra=           0 Total=    369966292
 MaxDsk=          -1 SrtSym=           F ITran=            4
 DoSDTr:  NPSUse= 28
 JobTyp=0 Pass  1:  I=   1 to  16.
 (rs|ai) integrals will be sorted in core.
 Complete sort for first half transformation.
 First half transformation complete.
 Begin second half transformation for I=  10.
 Begin second half transformation for I=  10.
 Complete sort for second half transformation.
 Second half transformation complete.
 Spin components of T(2) and E(2):
     alpha-alpha T2 =       0.3479156841D-01 E2=     -0.1244928072D+00
     alpha-beta  T2 =       0.1845701005D+00 E2=     -0.6996455488D+00
     beta-beta   T2 =       0.3479156841D-01 E2=     -0.1244928072D+00
 ANorm=    0.1583763390D+01
 E2 =    -0.9486311633D+00 EUMP2 =    -0.28045517782724D+03
 Leave Link  804 at Sun Mar  6 19:33:15 2022, MaxMem= 16106127360 cpu:             430.7 elap:              15.4
 (Enter /sw/contrib/gaussian/g16/B01/g16/l1002.exe)
 Minotr:  Closed shell wavefunction.
          Computing MP2/KS-MP2 derivatives.
          Using Z-Vector for PSCF gradient.
          Skipping F1 and S1 gradient terms here.
          IDoAtm=11111
          Frozen-core window.
          Using MO integrals in the linear equations.
          Forming densities via direct SCF.
          Differentiating once with respect to electric field.
                with respect to dipole field.
          Differentiating once with respect to nuclear coordinates.
          Using symmetry in CPHF.
          Requested convergence is 1.0D-10 RMS, and 1.0D-09 maximum.
          NewPWx=F KeepS1=T KeepF1=T KeepIn=T MapXYZ=F SortEE=F KeepMc=T.
          MDV=   16106127360 using IRadAn=       5.
          Solving linear equations separately, MaxMat=       0.
          There are     1 degrees of freedom in the 1st order CPHF.  IDoFFX=0 NUNeed=     1.
 FoFJK:  IHMeth= 1 ICntrl=       0 DoSepK=F KAlg= 0 I1Cent=           0 FoldK=F
 IRaf=         0 NMat=       1 IRICut=       1 DoRegI=T DoRafI=F ISym2E= 0 IDoP0=0 IntGTp=1.
 FoFCou: FMM=F IPFlag=           0 FMFlag=      100000 FMFlg1=           0
         NFxFlg=           0 DoJE=F BraDBF=F KetDBF=F FulRan=T
         wScrn=  0.000000 ICntrl=         0 IOpCl=  0 I1Cent=           0 NGrid=           0
         NMat0=    1 NMatS0=      1 NMatT0=    0 NMatD0=    1 NMtDS0=    0 NMtDT0=    0
 Symmetry not used in FoFCou.
 LinEq1:  Iter=  0 NonCon=     1 RMS=6.59D-03 Max=1.69D-01 NDo=     1
 LinEq1:  Iter=  1 NonCon=     1 RMS=2.00D-03 Max=3.08D-02 NDo=     1
 LinEq1:  Iter=  2 NonCon=     1 RMS=8.86D-04 Max=1.44D-02 NDo=     1
 LinEq1:  Iter=  3 NonCon=     1 RMS=3.80D-04 Max=8.17D-03 NDo=     1
 LinEq1:  Iter=  4 NonCon=     1 RMS=1.37D-04 Max=1.71D-03 NDo=     1
 LinEq1:  Iter=  5 NonCon=     1 RMS=7.66D-05 Max=1.38D-03 NDo=     1
 LinEq1:  Iter=  6 NonCon=     1 RMS=2.44D-05 Max=3.61D-04 NDo=     1
 LinEq1:  Iter=  7 NonCon=     1 RMS=8.08D-06 Max=1.08D-04 NDo=     1
 LinEq1:  Iter=  8 NonCon=     1 RMS=3.97D-06 Max=6.18D-05 NDo=     1
 LinEq1:  Iter=  9 NonCon=     1 RMS=1.04D-06 Max=1.24D-05 NDo=     1
 LinEq1:  Iter= 10 NonCon=     1 RMS=2.30D-07 Max=3.07D-06 NDo=     1
 LinEq1:  Iter= 11 NonCon=     1 RMS=4.92D-08 Max=8.44D-07 NDo=     1
 LinEq1:  Iter= 12 NonCon=     1 RMS=1.16D-08 Max=1.80D-07 NDo=     1
 LinEq1:  Iter= 13 NonCon=     1 RMS=2.04D-09 Max=2.35D-08 NDo=     1
 LinEq1:  Iter= 14 NonCon=     1 RMS=4.20D-10 Max=5.66D-09 NDo=     1
 LinEq1:  Iter= 15 NonCon=     0 RMS=8.63D-11 Max=8.31D-10 NDo=     1
 Linear equations converged to 1.000D-10 1.000D-09 after    15 iterations.
 End of Minotr F.D. properties file   721 does not exist.
 End of Minotr F.D. properties file   722 does not exist.
 End of Minotr F.D. properties file   788 does not exist.
 Leave Link 1002 at Sun Mar  6 19:33:17 2022, MaxMem= 16106127360 cpu:              65.5 elap:               2.4
 (Enter /sw/contrib/gaussian/g16/B01/g16/l1102.exe)
 Use density number 2.
 Symmetrizing basis deriv contribution to polar:
 IMax=3 JMax=2 DiffMx= 0.00D+00
 Leave Link 1102 at Sun Mar  6 19:33:17 2022, MaxMem= 16106127360 cpu:               0.6 elap:               0.0
 (Enter /sw/contrib/gaussian/g16/B01/g16/l1110.exe)
 Forming Gx(P) for generalized density number  2 NAtomX=     5.
 Integral derivatives from FoFJK, PRISM(SPDF).
 Do as many integral derivatives as possible in FoFJK.
 G2DrvN: MDV=   16106126844.
 G2DrvN: will do     6 centers at a time, making    1 passes.
 Calling FoFCou, ICntrl=  3107 FMM=F I1Cent=   0 AccDes= 0.00D+00.
 FoFJK:  IHMeth= 1 ICntrl=    3107 DoSepK=F KAlg= 0 I1Cent=           0 FoldK=F
 IRaf=         0 NMat=       1 IRICut=       1 DoRegI=T DoRafI=F ISym2E= 1 IDoP0=0 IntGTp=1.
 FoFCou: FMM=F IPFlag=           0 FMFlag=      100000 FMFlg1=           0
         NFxFlg=           0 DoJE=F BraDBF=F KetDBF=F FulRan=T
         wScrn=  0.000000 ICntrl=      3107 IOpCl=  0 I1Cent=           0 NGrid=           0
         NMat0=    1 NMatS0=      1 NMatT0=    0 NMatD0=    1 NMtDS0=    0 NMtDT0=    0
 Petite list used in FoFCou.
 End of G2Drv F.D. properties file   721 does not exist.
 End of G2Drv F.D. properties file   722 does not exist.
 End of G2Drv F.D. properties file   788 does not exist.
 Leave Link 1110 at Sun Mar  6 19:33:20 2022, MaxMem= 16106127360 cpu:              87.8 elap:               3.2
 (Enter /sw/contrib/gaussian/g16/B01/g16/l1112.exe)
 MP22nd: MDV=   16106127360
 This link is doing NAtomX=     5 total of    18 degrees of freedom.
 Using ON3 I/O method in MakUI.
 Frozen-core window:  NFC=   4 NFV=   0.
 Using Ix for Sx.
 Use MO integrals over full window.
 Using OV2 memory method for fx*t*t/D, MaxI=    16 DoOO2=F NP=  28.
 R2 and R3 integrals will be kept in memory, NReq=   915591705.
 FoFCou: FMM=F IPFlag=           0 FMFlag=           0 FMFlg1=           0
         NFxFlg=           0 DoJE=F BraDBF=F KetDBF=F FulRan=T
         wScrn=  0.000000 ICntrl=       600 IOpCl=  0 I1Cent=           0 NGrid=           0
         NMat0=    1 NMatS0=      1 NMatT0=    0 NMatD0=    1 NMtDS0=    0 NMtDT0=    0
 Symmetry not used in FoFCou.
 DD1Dir will call FoFMem   1 times, MxPair=       272
 NAB=   136 NAA=     0 NBB=     0.
 Symmetry is being used.
 FoFJK:  IHMeth= 1 ICntrl=       0 DoSepK=F KAlg= 0 I1Cent=           0 FoldK=F
 IRaf=         0 NMat=      18 IRICut=      45 DoRegI=T DoRafI=T ISym2E= 2 IDoP0=3 IntGTp=3.
 Discarding MO integrals.
 Leave Link 1112 at Sun Mar  6 19:33:47 2022, MaxMem= 16106127360 cpu:             736.5 elap:              26.4
 (Enter /sw/contrib/gaussian/g16/B01/g16/l601.exe)
 Copying SCF densities to generalized density rwf, IOpCl= 0 IROHF=0.

 **********************************************************************

            Population analysis using the MP2 Density.

 **********************************************************************

 Orbital symmetries:
       Occupied  (A') (A') (A') (A') (A') (A') (A') (A') (A') (A')
                 (A") (A') (A") (A') (A') (A")
       Virtual   (A') (A") (A') (A') (A") (A') (A') (A') (A") (A')
                 (A") (A') (A') (A') (A") (A') (A') (A") (A') (A')
                 (A') (A') (A') (A') (A") (A') (A') (A") (A') (A')
                 (A') (A") (A") (A') (A') (A') (A") (A') (A") (A')
                 (A") (A") (A') (A') (A") (A') (A') (A") (A') (A')
                 (A') (A") (A') (A') (A") (A') (A") (A') (A") (A')
                 (A') (A') (A") (A') (A') (A') (A") (A") (A') (A')
                 (A") (A') (A") (A") (A') (A') (A") (A') (A') (A')
                 (A") (A') (A') (A") (A') (A") (A") (A') (A') (A')
                 (A') (A') (A") (A") (A') (A') (A") (A") (A') (A')
                 (A") (A') (A") (A') (A") (A') (A') (A') (A") (A')
                 (A") (A') (A') (A') (A") (A') (A') (A') (A") (A')
                 (A") (A") (A') (A') (A") (A") (A') (A") (A') (A')
                 (A') (A') (A") (A') (A') (A") (A") (A') (A') (A')
                 (A") (A") (A') (A') (A') (A") (A') (A') (A') (A")
                 (A') (A') (A') (A") (A") (A') (A") (A') (A') (A")
                 (A') (A") (A') (A") (A") (A') (A') (A") (A") (A")
                 (A') (A") (A") (A') (A') (A") (A') (A') (A') (A")
                 (A') (A') (A') (A') (A') (A') (A') (A') (A') (A')
                 (A')
 The electronic state is 1-A'.
 Alpha  occ. eigenvalues --  -20.71867 -20.68672 -20.66952 -15.82605  -1.64301
 Alpha  occ. eigenvalues --   -1.50527  -1.29382  -0.96020  -0.83293  -0.75845
 Alpha  occ. eigenvalues --   -0.73926  -0.63878  -0.61871  -0.61778  -0.50410
 Alpha  occ. eigenvalues --   -0.49722
 Alpha virt. eigenvalues --    0.03488   0.06066   0.09516   0.10071   0.11973
 Alpha virt. eigenvalues --    0.12249   0.14887   0.15156   0.17761   0.18058
 Alpha virt. eigenvalues --    0.18990   0.21104   0.21669   0.24131   0.24646
 Alpha virt. eigenvalues --    0.26898   0.31142   0.31547   0.33795   0.34483
 Alpha virt. eigenvalues --    0.34747   0.39164   0.44743   0.48807   0.50485
 Alpha virt. eigenvalues --    0.51912   0.54487   0.56140   0.60001   0.62047
 Alpha virt. eigenvalues --    0.63838   0.68893   0.71741   0.72478   0.74206
 Alpha virt. eigenvalues --    0.76196   0.76659   0.79556   0.80514   0.84111
 Alpha virt. eigenvalues --    0.84347   0.85143   0.88514   0.90708   0.92936
 Alpha virt. eigenvalues --    0.94781   0.95365   1.01858   1.03022   1.05664
 Alpha virt. eigenvalues --    1.06499   1.09280   1.14128   1.15604   1.16932
 Alpha virt. eigenvalues --    1.22201   1.22581   1.24674   1.34863   1.36562
 Alpha virt. eigenvalues --    1.37455   1.46748   1.48504   1.50598   1.53993
 Alpha virt. eigenvalues --    1.59358   1.59775   1.60546   1.62608   1.69583
 Alpha virt. eigenvalues --    1.74048   1.80203   1.83081   1.88850   1.89271
 Alpha virt. eigenvalues --    1.92689   1.97849   1.98801   2.05118   2.12654
 Alpha virt. eigenvalues --    2.12827   2.16413   2.18482   2.24203   2.25764
 Alpha virt. eigenvalues --    2.29530   2.34736   2.36224   2.38806   2.39993
 Alpha virt. eigenvalues --    2.43180   2.46811   2.47622   2.52692   2.53488
 Alpha virt. eigenvalues --    2.54895   2.55779   2.61353   2.62759   2.67010
 Alpha virt. eigenvalues --    2.67090   2.75437   2.80928   2.81254   2.84218
 Alpha virt. eigenvalues --    2.91545   2.98518   3.04615   3.04667   3.11693
 Alpha virt. eigenvalues --    3.11897   3.16363   3.21296   3.30781   3.33227
 Alpha virt. eigenvalues --    3.36620   3.47352   3.68238   3.86862   3.92122
 Alpha virt. eigenvalues --    4.17916   4.21733   4.22247   4.26113   4.36592
 Alpha virt. eigenvalues --    4.50269   4.50753   4.55647   4.59705   4.69773
 Alpha virt. eigenvalues --    4.81322   4.90103   4.91333   4.93840   4.99941
 Alpha virt. eigenvalues --    5.00653   5.10855   5.12974   5.18143   5.24841
 Alpha virt. eigenvalues --    5.25828   5.31775   5.32999   5.35090   5.55130
 Alpha virt. eigenvalues --    5.64544   5.70372   5.88729   5.99970   6.26691
 Alpha virt. eigenvalues --    6.29671   6.36104   6.37858   6.59673   6.65153
 Alpha virt. eigenvalues --    6.65760   6.68625   6.72848   6.79978   6.80473
 Alpha virt. eigenvalues --    6.84858   6.96746   7.02053   7.06615   7.08087
 Alpha virt. eigenvalues --    7.13599   7.16529   7.17489   7.20252   7.24525
 Alpha virt. eigenvalues --    7.24801   7.27001   7.34560   7.38946   7.42542
 Alpha virt. eigenvalues --    7.44298   7.46340   7.55575   7.65962   7.66488
 Alpha virt. eigenvalues --    7.79558   7.88111   7.94751   8.05122   8.30155
 Alpha virt. eigenvalues --    8.49587   8.65464  13.60741  14.78158  15.08624
 Alpha virt. eigenvalues --   15.73013
          Condensed to atoms (all electrons):
               1          2          3          4          5
     1  H    0.575598   0.125932   0.024487  -0.001069  -0.005305
     2  O    0.125932   8.388056  -0.233476  -0.000744  -0.006807
     3  O    0.024487  -0.233476   8.373972  -0.167707  -0.035411
     4  N   -0.001069  -0.000744  -0.167707   7.133513  -0.116314
     5  O   -0.005305  -0.006807  -0.035411  -0.116314   8.361691
 Mulliken charges:
               1
     1  H    0.280358
     2  O   -0.272959
     3  O    0.038135
     4  N    0.152321
     5  O   -0.197855
 Sum of Mulliken charges =  -0.00000
 Mulliken charges with hydrogens summed into heavy atoms:
               1
     2  O    0.007398
     3  O    0.038135
     4  N    0.152321
     5  O   -0.197855
 APT charges:
               1
     1  H    0.269030
     2  O   -0.303092
     3  O   -0.308556
     4  N    0.645993
     5  O   -0.303376
 Sum of APT charges =  -0.00000
 APT charges with hydrogens summed into heavy atoms:
               1
     2  O   -0.034062
     3  O   -0.308556
     4  N    0.645993
     5  O   -0.303376
 Electronic spatial extent (au):  <R**2>=            208.4331
 Charge=             -0.0000 electrons
 Dipole moment (field-independent basis, Debye):
    X=              0.0811    Y=             -1.1026    Z=              0.0000  Tot=              1.1056
 Quadrupole moment (field-independent basis, Debye-Ang):
   XX=            -23.3026   YY=            -23.0057   ZZ=            -21.9366
   XY=             -1.9948   XZ=              0.0000   YZ=              0.0000
 Traceless Quadrupole moment (field-independent basis, Debye-Ang):
   XX=             -0.5543   YY=             -0.2574   ZZ=              0.8117
   XY=             -1.9948   XZ=              0.0000   YZ=              0.0000
 Octapole moment (field-independent basis, Debye-Ang**2):
  XXX=              2.6668  YYY=              0.3046  ZZZ=              0.0000  XYY=              2.3633
  XXY=             -2.8646  XXZ=              0.0000  XZZ=             -0.5888  YZZ=             -0.7122
  YYZ=              0.0000  XYZ=              0.0000
 Hexadecapole moment (field-independent basis, Debye-Ang**3):
 XXXX=           -127.9675 YYYY=            -95.1316 ZZZZ=            -18.0467 XXXY=            -22.1700
 XXXZ=              0.0000 YYYX=            -20.2977 YYYZ=              0.0000 ZZZX=              0.0000
 ZZZY=              0.0000 XXYY=            -35.9355 XXZZ=            -24.5447 YYZZ=            -18.6259
 XXYZ=              0.0000 YYXZ=              0.0000 ZZXY=             -6.0885
 N-N= 1.225171368842D+02 E-N=-9.065954478061D+02  KE= 2.801975222132D+02
 Symmetry A'   KE= 2.663439357432D+02
 Symmetry A"   KE= 1.385358646996D+01
  Exact polarizability:  31.102   4.233  29.921   0.000   0.000  17.637
 Approx polarizability:  24.674   0.601  27.650  -0.000  -0.000  15.525
 No NMR shielding tensors so no spin-rotation constants.
 Leave Link  601 at Sun Mar  6 19:33:47 2022, MaxMem= 16106127360 cpu:               4.3 elap:               0.2
 (Enter /sw/contrib/gaussian/g16/B01/g16/l701.exe)
 ... and contract with generalized density number  2.
 Compute integral second derivatives.
 Leave Link  701 at Sun Mar  6 19:33:47 2022, MaxMem= 16106127360 cpu:               6.1 elap:               0.2
 (Enter /sw/contrib/gaussian/g16/B01/g16/l702.exe)
 L702 exits ... SP integral derivatives will be done elsewhere.
 Leave Link  702 at Sun Mar  6 19:33:47 2022, MaxMem= 16106127360 cpu:               0.5 elap:               0.0
 (Enter /sw/contrib/gaussian/g16/B01/g16/l703.exe)
 Integral derivatives from FoFJK, PRISM(SPDF).
 Compute integral second derivatives, UseDBF=F ICtDFT=           0.
 Calling FoFJK, ICntrl=  10100127 FMM=F ISym2X=1 I1Cent= 0 IOpClX= 0 NMat=1 NMatS=1 NMatT=0.
 FoFJK:  IHMeth= 1 ICntrl=10100127 DoSepK=F KAlg= 0 I1Cent=           0 FoldK=F
 IRaf=         0 NMat=       1 IRICut=       1 DoRegI=T DoRafI=F ISym2E= 1 IDoP0=0 IntGTp=1.
 FoFCou: FMM=F IPFlag=           0 FMFlag=      100000 FMFlg1=         800
         NFxFlg=           0 DoJE=F BraDBF=F KetDBF=F FulRan=T
         wScrn=  0.000000 ICntrl=  10100127 IOpCl=  0 I1Cent=           0 NGrid=           0
         NMat0=    1 NMatS0=      1 NMatT0=    0 NMatD0=    1 NMtDS0=    0 NMtDT0=    0
 Petite list used in FoFCou.
 Leave Link  703 at Sun Mar  6 19:34:03 2022, MaxMem= 16106127360 cpu:             445.5 elap:              15.9
 (Enter /sw/contrib/gaussian/g16/B01/g16/l716.exe)
 Dipole        = 3.19083413D-02-4.33807731D-01 0.00000000D+00
 Polarizability= 3.11015064D+01 4.23299295D+00 2.99209656D+01
                 0.00000000D+00 0.00000000D+00 1.76366283D+01
 Full mass-weighted force constant matrix:
 Low frequencies ---  -41.4451   -0.0008   -0.0005    0.0006   19.8339   36.5784
 Low frequencies ---  354.2803  377.8327  519.2926
 Diagonal vibrational polarizability:
        7.3230214      10.0645374      16.1628222
 Harmonic frequencies (cm**-1), IR intensities (KM/Mole), Raman scattering
 activities (A**4/AMU), depolarization ratios for plane and unpolarized
 incident light, reduced masses (AMU), force constants (mDyne/A),
 and normal coordinates:
                      1                      2                      3
                     A"                     A'                     A"
 Frequencies --    354.2312               377.8327               519.2759
 Red. masses --      1.5497                 7.0166                 2.9450
 Frc consts  --      0.1146                 0.5902                 0.4679
 IR Inten    --     63.4016                 7.7311                25.7040
  Atom  AN      X      Y      Z        X      Y      Z        X      Y      Z
     1   1    -0.00  -0.00   0.98    -0.73  -0.26  -0.00    -0.00  -0.00   0.93
     2   8    -0.00  -0.00  -0.11    -0.32  -0.31   0.00    -0.00  -0.00   0.05
     3   8    -0.00   0.00   0.12    -0.07   0.09  -0.00    -0.00  -0.00  -0.19
     4   7     0.00   0.00  -0.11     0.05   0.09   0.00     0.00   0.00   0.27
     5   8     0.00   0.00   0.03     0.39   0.16   0.00     0.00   0.00  -0.17
                      4                      5                      6
                     A'                     A'                     A'
 Frequencies --    712.8868               835.5717               971.1915
 Red. masses --     13.2519                12.2522                 9.6131
 Frc consts  --      3.9680                 5.0400                 5.3423
 IR Inten    --    220.0798                29.0288                12.9359
  Atom  AN      X      Y      Z        X      Y      Z        X      Y      Z
     1   1    -0.36   0.00   0.00     0.45  -0.15  -0.00    -0.64  -0.01  -0.00
     2   8     0.01  -0.08   0.00     0.52  -0.20   0.00     0.21  -0.16  -0.00
     3   8     0.37   0.58  -0.00    -0.38  -0.04   0.00    -0.36   0.40   0.00
     4   7    -0.42  -0.46   0.00    -0.43  -0.05  -0.00     0.37   0.04  -0.00
     5   8     0.02  -0.10  -0.00     0.21   0.28   0.00    -0.13  -0.27   0.00
                      7                      8                      9
                     A'                     A'                     A'
 Frequencies --   1431.4753              1567.0167              3493.9721
 Red. masses --      1.2905                 6.9799                 1.0639
 Frc consts  --      1.5581                10.0983                 7.6523
 IR Inten    --     78.4584               152.3986                39.7649
  Atom  AN      X      Y      Z        X      Y      Z        X      Y      Z
     1   1     0.97  -0.19  -0.00    -0.74   0.16   0.00     0.14   0.99   0.00
     2   8    -0.06  -0.05  -0.00     0.02   0.02   0.00    -0.01  -0.06  -0.00
     3   8    -0.03   0.06   0.00    -0.04  -0.06  -0.00     0.00  -0.00   0.00
     4   7     0.06  -0.05  -0.00     0.26  -0.42   0.00    -0.00   0.00   0.00
     5   8    -0.02   0.04   0.00    -0.16   0.40  -0.00     0.00  -0.00  -0.00

 -------------------
 - Thermochemistry -
 -------------------
 Temperature   298.150 Kelvin.  Pressure   1.00000 Atm.
 Atom     1 has atomic number  1 and mass   1.00783
 Atom     2 has atomic number  8 and mass  15.99491
 Atom     3 has atomic number  8 and mass  15.99491
 Atom     4 has atomic number  7 and mass  14.00307
 Atom     5 has atomic number  8 and mass  15.99491
 Molecular mass:    62.99564 amu.
 Principal axes and moments of inertia in atomic units:
                           1         2         3
     Eigenvalues --    83.83544 225.64790 309.48334
           X            0.79767  -0.60310   0.00000
           Y            0.60310   0.79767   0.00000
           Z            0.00000   0.00000   1.00000
 This molecule is an asymmetric top.
 Rotational symmetry number  1.
 Rotational temperatures (Kelvin)      1.03314     0.38385     0.27987
 Rotational constants (GHZ):          21.52719     7.99804     5.83146
 Zero-point vibrational energy      61389.1 (Joules/Mol)
                                   14.67234 (Kcal/Mol)
 Warning -- explicit consideration of   3 degrees of freedom as
           vibrations may cause significant error
 Vibrational temperatures:    509.66   543.62   747.12  1025.69  1202.20
          (Kelvin)           1397.33  2059.57  2254.59  5027.05
 
 Zero-point correction=                           0.023382 (Hartree/Particle)
 Thermal correction to Energy=                    0.027341
 Thermal correction to Enthalpy=                  0.028285
 Thermal correction to Gibbs Free Energy=        -0.002615
 Sum of electronic and zero-point Energies=           -280.431796
 Sum of electronic and thermal Energies=              -280.427837
 Sum of electronic and thermal Enthalpies=            -280.426893
 Sum of electronic and thermal Free Energies=         -280.457793
 
                     E (Thermal)             CV                S
                      KCal/Mol        Cal/Mol-Kelvin    Cal/Mol-Kelvin
 Total                   17.156             12.216             65.034
 Electronic               0.000              0.000              0.000
 Translational            0.889              2.981             38.341
 Rotational               0.889              2.981             23.286
 Vibrational             15.379              6.254              3.408
 Vibration     1          0.730              1.567              1.147
 Vibration     2          0.748              1.517              1.048
 Vibration     3          0.874              1.207              0.612
                       Q            Log10(Q)             Ln(Q)
 Total Bot       0.159544D+02          1.202880          2.769733
 Total V=0       0.907368D+12         11.957783         27.533814
 Vib (Bot)       0.296392D-10        -10.528133        -24.241923
 Vib (Bot)    1  0.519408D+00         -0.284491         -0.655065
 Vib (Bot)    2  0.479257D+00         -0.319432         -0.735519
 Vib (Bot)    3  0.311050D+00         -0.507170         -1.167802
 Vib (V=0)       0.168566D+01          0.226770          0.522157
 Vib (V=0)    1  0.122096D+01          0.086702          0.199638
 Vib (V=0)    2  0.119259D+01          0.076493          0.176131
 Vib (V=0)    3  0.108886D+01          0.036971          0.085128
 Electronic      0.100000D+01          0.000000          0.000000
 Translational   0.196526D+08          7.293420         16.793719
 Rotational      0.273901D+05          4.437594         10.217937
 
                                                                title
                                                             IR Spectrum
 
     3                                                                      1   1                                                    
     4                                                                      5   4                9    8    7      5    33            
     9                                                                      6   3                7    3    1      1    75            
     4                                                                      7   1                1    6    3      9    84            
 
     X                                                                      X   X                X    X    X      X    XX            
     X                                                                      X   X                     X    X      X     X            
     X                                                                      X   X                     X    X            X            
     X                                                                      X   X                          X            X            
                                                                            X   X                          X            X            
                                                                            X   X                          X            X            
                                                                            X   X                          X                         
                                                                            X                              X                         
                                                                            X                              X                         
                                                                            X                              X                         
                                                                            X                              X                         
                                                                            X                              X                         
                                                                            X                              X                         
                                                                            X                              X                         
                                                                                                           X                         
                                                                                                           X                         
                                                                                                           X                         
                                                                                                           X                         
                                                                                                           X                         
                                                                                                           X                         
 
 ***** Axes restored to original set *****
 -------------------------------------------------------------------
 Center     Atomic                   Forces (Hartrees/Bohr)
 Number     Number              X              Y              Z
 -------------------------------------------------------------------
      1        1          -0.000074683   -0.000000000    0.000166621
      2        8           0.000796327   -0.000000000   -0.003046335
      3        8           0.002370346   -0.000000000    0.003049549
      4        7          -0.002651466   -0.000000000   -0.000265592
      5        8          -0.000440524   -0.000000000    0.000095757
 -------------------------------------------------------------------
 Cartesian Forces:  Max     0.003049549 RMS     0.001464467
 -----------------------------------------------------------------------------------------------
                       Internal Coordinate Forces (Hartree/Bohr or radian)
  Cent   Atom   N1       Length/X         N2         Alpha/Y        N3         Beta/Z          J
 -----------------------------------------------------------------------------------------------
      1  H 
      2  O        1  -0.000167(     1)
      3  O        2  -0.000178(     2)      1   0.000139(     5)
      4  N        3  -0.001621(     3)      2  -0.007851(     6)      1   0.000000(     8)     0
      5  O        4   0.000145(     4)      3  -0.000964(     7)      2   0.000000(     9)     0
 -----------------------------------------------------------------------------------------------
 Internal  Forces:  Max     0.007850935 RMS     0.002693463
 Force constants in Cartesian coordinates: 
                1             2             3             4             5 
      1  0.713320D-01
      2  0.000000D+00  0.602802D-02
      3  0.235523D-01  0.000000D+00  0.438293D+00
      4 -0.517619D-01  0.000000D+00 -0.479511D-02  0.279311D+00
      5  0.000000D+00 -0.258057D-02  0.000000D+00  0.000000D+00  0.123275D-01
      6  0.330034D-01  0.000000D+00 -0.422749D+00 -0.915072D-02  0.000000D+00
      7 -0.252641D-01  0.000000D+00 -0.153621D-01 -0.171748D+00  0.000000D+00
      8  0.000000D+00 -0.400470D-02  0.000000D+00  0.000000D+00 -0.181040D-01
      9 -0.450573D-01  0.000000D+00 -0.191367D-01  0.931309D-02  0.000000D+00
     10 -0.466072D-02  0.000000D+00  0.622957D-02 -0.824074D-01  0.000000D+00
     11  0.000000D+00  0.777265D-02  0.000000D+00  0.000000D+00  0.192158D-01
     12 -0.181402D-01  0.000000D+00  0.110414D-01  0.850047D-02  0.000000D+00
     13  0.103547D-01  0.000000D+00 -0.962466D-02  0.266066D-01  0.000000D+00
     14  0.000000D+00 -0.721540D-02  0.000000D+00  0.000000D+00 -0.108588D-01
     15  0.664180D-02  0.000000D+00 -0.744843D-02 -0.386772D-02  0.000000D+00
                6             7             8             9            10 
      6  0.522135D+00
      7 -0.912269D-01  0.303872D+00
      8  0.000000D+00  0.000000D+00  0.394345D-01
      9 -0.981963D-01  0.816110D-01  0.000000D+00  0.320547D+00
     10  0.396052D-01 -0.143734D+00  0.000000D+00 -0.381383D-01  0.542631D+00
     11  0.000000D+00  0.000000D+00 -0.476372D-01  0.000000D+00  0.000000D+00
     12 -0.749551D-02  0.133302D-01  0.000000D+00 -0.278467D-01  0.244620D+00
     13  0.277691D-01  0.368746D-01  0.000000D+00 -0.772844D-02 -0.311829D+00
     14  0.000000D+00  0.000000D+00  0.303114D-01  0.000000D+00  0.000000D+00
     15  0.630616D-02  0.116479D-01  0.000000D+00 -0.175367D+00 -0.252316D+00
               11            12            13            14            15 
     11  0.580833D-01
     12  0.000000D+00  0.457443D+00
     13  0.000000D+00 -0.248310D+00  0.237993D+00
     14 -0.374346D-01  0.000000D+00  0.000000D+00  0.251973D-01
     15  0.000000D+00 -0.433142D+00  0.237894D+00  0.000000D+00  0.609651D+00
 Force constants in internal coordinates: 
                1             2             3             4             5 
      1  0.438293D+00
      2  0.213038D-01  0.258074D+00
      3  0.488671D-02  0.161305D-01  0.203555D+00
      4 -0.113389D-01  0.225705D-01  0.148694D+00  0.721175D+00
      5  0.437819D-01  0.552518D-01 -0.236386D-01  0.205254D-01  0.247024D+00
      6  0.119274D-01  0.158072D-01  0.790253D-01  0.902984D-02 -0.139001D-01
      7  0.998102D-02 -0.738902D-01  0.113313D+00  0.117900D+00 -0.229630D-01
      8  0.000000D+00  0.000000D+00  0.000000D+00  0.000000D+00  0.000000D+00
      9  0.000000D+00  0.000000D+00  0.000000D+00  0.000000D+00  0.000000D+00
                6             7             8             9 
      6  0.480503D+00
      7  0.396332D-01  0.645035D+00
      8  0.000000D+00  0.000000D+00  0.198646D-01
      9  0.000000D+00  0.000000D+00  0.271659D-01  0.107273D+00
 Leave Link  716 at Sun Mar  6 19:34:03 2022, MaxMem= 16106127360 cpu:               1.5 elap:               0.1
 (Enter /sw/contrib/gaussian/g16/B01/g16/l103.exe)

 GradGradGradGradGradGradGradGradGradGradGradGradGradGradGradGradGradGrad
 Berny optimization.
 Search for a local minimum.
 Step number   1 out of a maximum of    2
 All quantities printed in internal units (Hartrees-Bohrs-Radians)
 Second derivative matrix not updated -- analytic derivatives used.
 The second derivative matrix:
                          r1        r2        r3        r4        a1
           r1           0.43829
           r2           0.02130   0.25807
           r3           0.00489   0.01613   0.20355
           r4          -0.01134   0.02257   0.14869   0.72118
           a1           0.04378   0.05525  -0.02364   0.02053   0.24702
           a2           0.01193   0.01581   0.07903   0.00903  -0.01390
           a3           0.00998  -0.07389   0.11331   0.11790  -0.02296
           d1           0.00000   0.00000   0.00000   0.00000   0.00000
           d2           0.00000   0.00000   0.00000   0.00000   0.00000
                          a2        a3        d1        d2
           a2           0.48050
           a3           0.03963   0.64504
           d1           0.00000   0.00000   0.01986
           d2           0.00000   0.00000   0.02717   0.10727
 ITU=  0
     Eigenvalues ---    0.01211   0.11503   0.12528   0.20211   0.27336
     Eigenvalues ---    0.44901   0.48940   0.58668   0.86782
 Angle between quadratic step and forces=   8.73 degrees.
 Linear search not attempted -- first point.
 Variable       Old X    -DE/DX   Delta X   Delta X   Delta X     New X
                                 (Linear)    (Quad)   (Total)
    r1        1.86209  -0.00017   0.00000   0.00017   0.00017   1.86226
    r2        2.69614  -0.00018   0.00000   0.00045   0.00045   2.69659
    r3        2.60992  -0.00162   0.00000  -0.00246  -0.00246   2.60745
    r4        2.25782   0.00014   0.00000   0.00096   0.00096   2.25878
    a1        1.75642   0.00014   0.00000  -0.00080  -0.00080   1.75562
    a2        1.99082  -0.00785   0.00000  -0.01598  -0.01598   1.97484
    a3        1.99550  -0.00096   0.00000  -0.00024  -0.00024   1.99527
    d1        0.00000   0.00000   0.00000   0.00000   0.00000   0.00000
    d2        0.00000   0.00000   0.00000   0.00000   0.00000   0.00000
         Item               Value     Threshold  Converged?
 Maximum Force            0.007851     0.000450     NO 
 RMS     Force            0.002693     0.000300     NO 
 Maximum Displacement     0.015975     0.001800     NO 
 RMS     Displacement     0.005407     0.001200     NO 
 Predicted change in Energy=-6.477691D-05
                       ----------------------------
                       ! Non-Optimized Parameters !
                       ! (Angstroms and Degrees)  !
 ----------------------                            ----------------------
 !      Name          Value   Derivative information (Atomic Units)     !
 ------------------------------------------------------------------------
 !       r1          0.9855   -DE/DX =   -0.0002                        !
 !       r2          1.427    -DE/DX =   -0.0002                        !
 !       r3          1.3798   -DE/DX =   -0.0016                        !
 !       r4          1.1953   -DE/DX =    0.0001                        !
 !       a1        100.5894   -DE/DX =    0.0001                        !
 !       a2        113.1503   -DE/DX =   -0.0079                        !
 !       a3        114.3204   -DE/DX =   -0.001                         !
 !       d1          0.0      -DE/DX =    0.0                           !
 !       d2          0.0      -DE/DX =    0.0                           !
 ------------------------------------------------------------------------
 GradGradGradGradGradGradGradGradGradGradGradGradGradGradGradGradGradGrad

 Leave Link  103 at Sun Mar  6 19:34:03 2022, MaxMem= 16106127360 cpu:               0.5 elap:               0.0
 (Enter /sw/contrib/gaussian/g16/B01/g16/l9999.exe)

 ----------------------------------------------------------------------

 Electric dipole moment (input orientation):
 (Debye = 10**-18 statcoulomb cm , SI units = C m)
                  (au)            (Debye)         (10**-30 SI)
   Tot        0.434980D+00      0.110561D+01      0.368791D+01
   x         -0.116752D+00     -0.296754D+00     -0.989866D+00
   y          0.000000D+00      0.000000D+00      0.000000D+00
   z         -0.419018D+00     -0.106504D+01     -0.355258D+01

 Dipole polarizability, Alpha (input orientation).
 (esu units = cm**3 , SI units = C**2 m**2 J**-1)
 Alpha(0;0):
               (au)            (10**-24 esu)      (10**-40 SI)
   iso        0.262197D+02      0.388536D+01      0.432304D+01
   aniso      0.148511D+02      0.220071D+01      0.244862D+01
   xx         0.294204D+02      0.435965D+01      0.485077D+01
   yx         0.000000D+00      0.000000D+00      0.000000D+00
   yy         0.176366D+02      0.261348D+01      0.290789D+01
   zx        -0.413240D+01     -0.612358D+00     -0.681341D+00
   zy         0.000000D+00      0.000000D+00      0.000000D+00
   zz         0.316021D+02      0.468294D+01      0.521048D+01

 ----------------------------------------------------------------------

 Dipole orientation:
     1         -0.00000000          0.00000000          0.00000000
     8         -0.49980107          0.00000000         -1.79376292
     8          1.91922887         -0.00000000         -2.98433981
     7          3.92644205         -0.00000000         -1.31618137
     8          3.32703678          0.00000000          0.86062313

 Electric dipole moment (dipole orientation):
 (Debye = 10**-18 statcoulomb cm , SI units = C m)
                  (au)            (Debye)         (10**-30 SI)
   Tot        0.434980D+00      0.110561D+01      0.368791D+01
   x          0.000000D+00      0.000000D+00      0.000000D+00
   y          0.000000D+00      0.000000D+00      0.000000D+00
   z          0.434980D+00      0.110561D+01      0.368791D+01

 Dipole polarizability, Alpha (dipole orientation).
 (esu units = cm**3 , SI units = C**2 m**2 J**-1)
 Alpha(0;0):
               (au)            (10**-24 esu)      (10**-40 SI)
   iso        0.262197D+02      0.388536D+01      0.432304D+01
   aniso      0.148511D+02      0.220071D+01      0.244862D+01
   xx         0.317145D+02      0.469961D+01      0.522902D+01
   yx         0.000000D+00      0.000000D+00      0.000000D+00
   yy         0.176366D+02      0.261348D+01      0.290789D+01
   zx         0.410107D+01      0.607716D+00      0.676175D+00
   zy         0.000000D+00      0.000000D+00      0.000000D+00
   zz         0.293080D+02      0.434299D+01      0.483223D+01

 ----------------------------------------------------------------------
 1\1\GINC-N2199\Freq\RMP2-FC\Aug-CC-pVTZ\H1N1O3\CGAVINH\06-Mar-2022\1\\
 #p freq mp2/aug-cc-pvtz density=current\\title\\0,1\H\O,1,r1\O,2,r2,1,
 a1\N,3,r3,2,a2,1,d1,0\O,4,r4,3,a3,2,d2,0\\r1=0.98537664\r2=1.42673666\
 r3=1.38110764\r4=1.19478846\a1=100.6355057\a2=114.06556151\a3=114.3339
 2022\d1=0.\d2=0.\\Version=ES64L-G16RevB.01\State=1-A'\HF=-279.5065467\
 MP2=-280.4551778\RMSD=4.169e-09\RMSF=1.464e-03\ZeroPoint=0.0233819\The
 rmal=0.0273406\Dipole=-0.1167522,0.,-0.4190182\DipoleDeriv=0.3144113,0
 .,0.0413233,0.,0.2996099,0.,-0.0184284,0.,0.1930691,-0.5364079,0.,0.27
 9463,0.,-0.2529963,0.,-0.1118327,0.,-0.1198707,-0.0027364,0.,0.3489982
 ,0.,-0.0139859,0.,0.4541518,0.,-0.9089447,0.2113069,0.,-0.1627709,0.,0
 .0149275,0.,-0.6924162,0.,1.7117459,0.0134261,0.,-0.5070137,0.,-0.0475
 552,0.,0.3685256,0.,-0.8759995\Polar=29.420397,0.,17.6366283,-4.132398
 7,0.,31.602075\Quadrupole=0.169392,0.6035053,-0.7728973,0.,1.410561,0.
 \PG=CS [SG(H1N1O3)]\NImag=0\\0.07133200,0.,0.00602802,0.02355234,0.,0.
 43829319,-0.05176188,0.,-0.00479511,0.27931097,0.,-0.00258057,0.,0.,0.
 01232749,0.03300336,0.,-0.42274946,-0.00915072,0.,0.52213512,-0.025264
 06,0.,-0.01536214,-0.17174831,0.,-0.09122690,0.30387155,0.,-0.00400470
 ,0.,0.,-0.01810398,0.,0.,0.03943448,-0.04505733,0.,-0.01913670,0.00931
 309,0.,-0.09819631,0.08161097,0.,0.32054665,-0.00466072,0.,0.00622957,
 -0.08240735,0.,0.03960519,-0.14373382,0.,-0.03813829,0.54263102,0.,0.0
 0777265,0.,0.,0.01921583,0.,0.,-0.04763724,0.,0.,0.05808334,-0.0181401
 7,0.,0.01104141,0.00850047,0.,-0.00749551,0.01333016,0.,-0.02784671,0.
 24461956,0.,0.45744252,0.01035466,0.,-0.00962466,0.02660657,0.,0.02776
 907,0.03687464,0.,-0.00772844,-0.31182913,0.,-0.24831002,0.23799325,0.
 ,-0.00721540,0.,0.,-0.01085876,0.,0.,0.03031145,0.,0.,-0.03743458,0.,0
 .,0.02519729,0.00664180,0.,-0.00744843,-0.00386772,0.,0.00630616,0.011
 64791,0.,-0.17536692,-0.25231604,0.,-0.43314171,0.23789405,0.,0.609650
 91\\0.00007468,0.,-0.00016662,-0.00079633,0.,0.00304634,-0.00237035,0.
 ,-0.00304955,0.00265147,0.,0.00026559,0.00044052,0.,-0.00009576\\\@


 SCIENCE IS LONG AND LIFE IS SHORT.

                     DON MOSER IN THE FEBRUARY 1979 SMITHSONIAN
 Job cpu time:       0 days  1 hours 57 minutes 44.2 seconds.
 Elapsed time:       0 days  0 hours  4 minutes 15.3 seconds.
 File lengths (MBytes):  RWF=   7239 Int=      0 D2E=      0 Chk=      8 Scr=      1
 Normal termination of Gaussian 16 at Sun Mar  6 19:34:04 2022.
