title                                                                   
Freq      RMP2-FC                                                     Aug-CC-pVTZ         
Number of atoms                            I                5
Info1-9                                    I   N=           9
          33          24           0           0           0         100
           6           2           1
Full Title                                 C   N=           1
title       
Route                                      C   N=           4
#p freq mp2/aug-cc-pvtz density=current         
Charge                                     I                0
Multiplicity                               I                1
Number of electrons                        I               32
Number of alpha electrons                  I               16
Number of beta electrons                   I               16
Number of basis functions                  I              207
Number of independent functions            I              207
Number of point charges in /Mol/           I                0
Number of translation vectors              I                0
Atomic numbers                             I   N=           5
           1           8           8           7           8
Nuclear charges                            R   N=           5
  1.00000000E+00  8.00000000E+00  8.00000000E+00  7.00000000E+00  8.00000000E+00
Current cartesian coordinates              R   N=          15
  2.11668753E+00 -1.15498316E+00  0.00000000E+00  2.51857121E+00  6.63223664E-01
 -4.93038066E-32 -1.16263516E-16  1.73745235E+00  0.00000000E+00 -1.88490342E+00
 -6.77613175E-02  4.93038066E-32 -1.13386666E+00 -2.19701197E+00  1.23259516E-32
Number of symbols in /Mol/                 I                0
Force Field                                I                0
Atom Types                                 C   N=           5
                                                            
Int Atom Types                             I   N=           5
           0           0           0           0           0
MM charges                                 R   N=           5
  0.00000000E+00  0.00000000E+00  0.00000000E+00  0.00000000E+00  0.00000000E+00
Integer atomic weights                     I   N=           5
           1          16          16          14          16
Real atomic weights                        R   N=           5
  1.00782504E+00  1.59949146E+01  1.59949146E+01  1.40030740E+01  1.59949146E+01
Atom fragment info                         I   N=           5
           0           0           0           0           0
Atom residue num                           I   N=           5
           0           0           0           0           0
Nuclear spins                              I   N=           5
           1           0           0           2           0
Nuclear ZEff                               R   N=           5
 -1.00000000E+00 -5.60000000E+00 -5.60000000E+00 -4.55000000E+00 -5.60000000E+00
Nuclear ZNuc                               R   N=           5
  1.00000000E+00  8.00000000E+00  8.00000000E+00  7.00000000E+00  8.00000000E+00
Nuclear QMom                               R   N=           5
  0.00000000E+00  0.00000000E+00  0.00000000E+00  2.04400000E+00  0.00000000E+00
Nuclear GFac                               R   N=           5
  2.79284600E+00  0.00000000E+00  0.00000000E+00  4.03761000E-01  0.00000000E+00
MicOpt                                     I   N=           5
          -1          -1          -1          -1          -1
Number of residues                         I                0
Number of secondary structures             I                0
SymInf integers                            I   N=          26
           1           2           1           1           1           1
           1          -1           0           0           0           0
           0           0           0           0           0           0
           0           0           0           0           0           0
           0           0
RotTr to input orientation                 R   N=          12
 -9.76432336E-01  1.23089639E-16  2.15823756E-01  2.15823756E-01 -2.72068705E-17
  9.76432336E-01  1.26060593E-16  1.00000000E+00  0.00000000E+00  2.31607495E+00
  0.00000000E+00  6.70931449E-01
Number of contracted shells                I               65
Number of primitive shells                 I              119
Pure/Cartesian d shells                    I                0
Pure/Cartesian f shells                    I                0
Highest angular momentum                   I                3
Largest degree of contraction              I                7
Shell types                                I   N=          65
           0           0           0           0           1           1
           1          -2          -2           0           0           0
           0           0           1           1           1           1
          -2          -2          -2          -3          -3           0
           0           0           0           0           1           1
           1           1          -2          -2          -2          -3
          -3           0           0           0           0           0
           1           1           1           1          -2          -2
          -2          -3          -3           0           0           0
           0           0           1           1           1           1
          -2          -2          -2          -3          -3
Number of primitives per shell             I   N=          65
           3           1           1           1           1           1
           1           1           1           7           6           1
           1           1           3           1           1           1
           1           1           1           1           1           7
           6           1           1           1           3           1
           1           1           1           1           1           1
           1           7           6           1           1           1
           3           1           1           1           1           1
           1           1           1           7           6           1
           1           1           3           1           1           1
           1           1           1           1           1
Shell to atom map                          I   N=          65
           1           1           1           1           1           1
           1           1           1           2           2           2
           2           2           2           2           2           2
           2           2           2           2           2           3
           3           3           3           3           3           3
           3           3           3           3           3           3
           3           4           4           4           4           4
           4           4           4           4           4           4
           4           4           4           5           5           5
           5           5           5           5           5           5
           5           5           5           5           5
Primitive exponents                        R   N=         119
  3.38700000E+01  5.09500000E+00  1.15900000E+00  3.25800000E-01  1.02700000E-01
  2.52600000E-02  1.40700000E+00  3.88000000E-01  1.02000000E-01  1.05700000E+00
  2.47000000E-01  1.53300000E+04  2.29900000E+03  5.22400000E+02  1.47300000E+02
  4.75500000E+01  1.67600000E+01  6.20700000E+00  5.22400000E+02  1.47300000E+02
  4.75500000E+01  1.67600000E+01  6.20700000E+00  6.88200000E-01  1.75200000E+00
  2.38400000E-01  7.37600000E-02  3.44600000E+01  7.74900000E+00  2.28000000E+00
  7.15600000E-01  2.14000000E-01  5.97400000E-02  2.31400000E+00  6.45000000E-01
  2.14000000E-01  1.42800000E+00  5.00000000E-01  1.53300000E+04  2.29900000E+03
  5.22400000E+02  1.47300000E+02  4.75500000E+01  1.67600000E+01  6.20700000E+00
  5.22400000E+02  1.47300000E+02  4.75500000E+01  1.67600000E+01  6.20700000E+00
  6.88200000E-01  1.75200000E+00  2.38400000E-01  7.37600000E-02  3.44600000E+01
  7.74900000E+00  2.28000000E+00  7.15600000E-01  2.14000000E-01  5.97400000E-02
  2.31400000E+00  6.45000000E-01  2.14000000E-01  1.42800000E+00  5.00000000E-01
  1.14200000E+04  1.71200000E+03  3.89300000E+02  1.10000000E+02  3.55700000E+01
  1.25400000E+01  4.64400000E+00  3.89300000E+02  1.10000000E+02  3.55700000E+01
  1.25400000E+01  4.64400000E+00  5.11800000E-01  1.29300000E+00  1.78700000E-01
  5.76000000E-02  2.66300000E+01  5.94800000E+00  1.74200000E+00  5.55000000E-01
  1.72500000E-01  4.91000000E-02  1.65400000E+00  4.69000000E-01  1.51000000E-01
  1.09300000E+00  3.64000000E-01  1.53300000E+04  2.29900000E+03  5.22400000E+02
  1.47300000E+02  4.75500000E+01  1.67600000E+01  6.20700000E+00  5.22400000E+02
  1.47300000E+02  4.75500000E+01  1.67600000E+01  6.20700000E+00  6.88200000E-01
  1.75200000E+00  2.38400000E-01  7.37600000E-02  3.44600000E+01  7.74900000E+00
  2.28000000E+00  7.15600000E-01  2.14000000E-01  5.97400000E-02  2.31400000E+00
  6.45000000E-01  2.14000000E-01  1.42800000E+00  5.00000000E-01
Contraction coefficients                   R   N=         119
  2.54948632E-02  1.90362766E-01  8.52162022E-01  1.00000000E+00  1.00000000E+00
  1.00000000E+00  1.00000000E+00  1.00000000E+00  1.00000000E+00  1.00000000E+00
  1.00000000E+00  5.19808943E-04  4.02025621E-03  2.07128267E-02  8.10105536E-02
  2.35962985E-01  4.42653446E-01  3.57064423E-01 -4.42115008E-05 -1.22591041E-03
 -1.05517725E-02 -6.74452633E-02 -1.71198607E-01  1.07329856E+00  1.00000000E+00
  1.00000000E+00  1.00000000E+00  4.11634896E-02  2.57762836E-01  8.02419274E-01
  1.00000000E+00  1.00000000E+00  1.00000000E+00  1.00000000E+00  1.00000000E+00
  1.00000000E+00  1.00000000E+00  1.00000000E+00  5.19808943E-04  4.02025621E-03
  2.07128267E-02  8.10105536E-02  2.35962985E-01  4.42653446E-01  3.57064423E-01
 -4.42115008E-05 -1.22591041E-03 -1.05517725E-02 -6.74452633E-02 -1.71198607E-01
  1.07329856E+00  1.00000000E+00  1.00000000E+00  1.00000000E+00  4.11634896E-02
  2.57762836E-01  8.02419274E-01  1.00000000E+00  1.00000000E+00  1.00000000E+00
  1.00000000E+00  1.00000000E+00  1.00000000E+00  1.00000000E+00  1.00000000E+00
  5.34563860E-04  4.13435660E-03  2.12335358E-02  8.25006224E-02  2.38138871E-01
  4.42551547E-01  3.53757422E-01 -4.89867350E-05 -1.19527323E-03 -1.03490714E-02
 -6.48680190E-02 -1.71552477E-01  1.07289568E+00  1.00000000E+00  1.00000000E+00
  1.00000000E+00  3.98072123E-02  2.49002660E-01  8.10479727E-01  1.00000000E+00
  1.00000000E+00  1.00000000E+00  1.00000000E+00  1.00000000E+00  1.00000000E+00
  1.00000000E+00  1.00000000E+00  5.19808943E-04  4.02025621E-03  2.07128267E-02
  8.10105536E-02  2.35962985E-01  4.42653446E-01  3.57064423E-01 -4.42115008E-05
 -1.22591041E-03 -1.05517725E-02 -6.74452633E-02 -1.71198607E-01  1.07329856E+00
  1.00000000E+00  1.00000000E+00  1.00000000E+00  4.11634896E-02  2.57762836E-01
  8.02419274E-01  1.00000000E+00  1.00000000E+00  1.00000000E+00  1.00000000E+00
  1.00000000E+00  1.00000000E+00  1.00000000E+00  1.00000000E+00
Coordinates of each shell                  R   N=         195
  2.11668753E+00 -1.15498316E+00  2.34644489E-33  2.11668753E+00 -1.15498316E+00
  2.34644489E-33  2.11668753E+00 -1.15498316E+00  2.34644489E-33  2.11668753E+00
 -1.15498316E+00  2.34644489E-33  2.11668753E+00 -1.15498316E+00  2.34644489E-33
  2.11668753E+00 -1.15498316E+00  2.34644489E-33  2.11668753E+00 -1.15498316E+00
  2.34644489E-33  2.11668753E+00 -1.15498316E+00  2.34644489E-33  2.11668753E+00
 -1.15498316E+00  2.34644489E-33  2.51857121E+00  6.63223664E-01 -4.16583922E-33
  2.51857121E+00  6.63223664E-01 -4.16583922E-33  2.51857121E+00  6.63223664E-01
 -4.16583922E-33  2.51857121E+00  6.63223664E-01 -4.16583922E-33  2.51857121E+00
  6.63223664E-01 -4.16583922E-33  2.51857121E+00  6.63223664E-01 -4.16583922E-33
  2.51857121E+00  6.63223664E-01 -4.16583922E-33  2.51857121E+00  6.63223664E-01
 -4.16583922E-33  2.51857121E+00  6.63223664E-01 -4.16583922E-33  2.51857121E+00
  6.63223664E-01 -4.16583922E-33  2.51857121E+00  6.63223664E-01 -4.16583922E-33
  2.51857121E+00  6.63223664E-01 -4.16583922E-33  2.51857121E+00  6.63223664E-01
 -4.16583922E-33  2.51857121E+00  6.63223664E-01 -4.16583922E-33 -8.86319527E-18
  1.73745235E+00 -5.93317649E-33 -8.86319527E-18  1.73745235E+00 -5.93317649E-33
 -8.86319527E-18  1.73745235E+00 -5.93317649E-33 -8.86319527E-18  1.73745235E+00
 -5.93317649E-33 -8.86319527E-18  1.73745235E+00 -5.93317649E-33 -8.86319527E-18
  1.73745235E+00 -5.93317649E-33 -8.86319527E-18  1.73745235E+00 -5.93317649E-33
 -8.86319527E-18  1.73745235E+00 -5.93317649E-33 -8.86319527E-18  1.73745235E+00
 -5.93317649E-33 -8.86319527E-18  1.73745235E+00 -5.93317649E-33 -8.86319527E-18
  1.73745235E+00 -5.93317649E-33 -8.86319527E-18  1.73745235E+00 -5.93317649E-33
 -8.86319527E-18  1.73745235E+00 -5.93317649E-33 -8.86319527E-18  1.73745235E+00
 -5.93317649E-33 -1.88490342E+00 -6.77613175E-02  1.65411986E-33 -1.88490342E+00
 -6.77613175E-02  1.65411986E-33 -1.88490342E+00 -6.77613175E-02  1.65411986E-33
 -1.88490342E+00 -6.77613175E-02  1.65411986E-33 -1.88490342E+00 -6.77613175E-02
  1.65411986E-33 -1.88490342E+00 -6.77613175E-02  1.65411986E-33 -1.88490342E+00
 -6.77613175E-02  1.65411986E-33 -1.88490342E+00 -6.77613175E-02  1.65411986E-33
 -1.88490342E+00 -6.77613175E-02  1.65411986E-33 -1.88490342E+00 -6.77613175E-02
  1.65411986E-33 -1.88490342E+00 -6.77613175E-02  1.65411986E-33 -1.88490342E+00
 -6.77613175E-02  1.65411986E-33 -1.88490342E+00 -6.77613175E-02  1.65411986E-33
 -1.88490342E+00 -6.77613175E-02  1.65411986E-33 -1.13386666E+00 -2.19701197E+00
  8.35835522E-33 -1.13386666E+00 -2.19701197E+00  8.35835522E-33 -1.13386666E+00
 -2.19701197E+00  8.35835522E-33 -1.13386666E+00 -2.19701197E+00  8.35835522E-33
 -1.13386666E+00 -2.19701197E+00  8.35835522E-33 -1.13386666E+00 -2.19701197E+00
  8.35835522E-33 -1.13386666E+00 -2.19701197E+00  8.35835522E-33 -1.13386666E+00
 -2.19701197E+00  8.35835522E-33 -1.13386666E+00 -2.19701197E+00  8.35835522E-33
 -1.13386666E+00 -2.19701197E+00  8.35835522E-33 -1.13386666E+00 -2.19701197E+00
  8.35835522E-33 -1.13386666E+00 -2.19701197E+00  8.35835522E-33 -1.13386666E+00
 -2.19701197E+00  8.35835522E-33 -1.13386666E+00 -2.19701197E+00  8.35835522E-33
Num ILSW                                   I              100
ILSW                                       I   N=         100
           0           0           0           0           2           0
           0           0           0           0           0          -1
           5           0           0           0           2           0
           0           0           0           0           1           0
           1           0           0           0           0           0
           0           0      100000           0          -1           0
           0           0           0           0           0           0
           0           0           0           1           1           0
           0 -2000000000           1           0           0           0
           0           0           4          52           0           0
           0           0           0           0           0           0
           0           0           0           5           4           1
           0           0           0           0           0           0
           0           0           0           0           0           0
           0           0           0           0           0           0
           0           0           0           0           0           0
           0           0           0           0
Num RLSW                                   I               52
RLSW                                       R   N=          52
  1.00000000E+00  1.00000000E+00  1.00000000E+00  1.00000000E+00  1.00000000E+00
  0.00000000E+00  0.00000000E+00  1.00000000E+00  0.00000000E+00  0.00000000E+00
  0.00000000E+00  0.00000000E+00  1.00000000E+00  0.00000000E+00  0.00000000E+00
  0.00000000E+00  0.00000000E+00  1.00000000E+00  0.00000000E+00  0.00000000E+00
  0.00000000E+00  0.00000000E+00  1.00000000E+00  0.00000000E+00  0.00000000E+00
  0.00000000E+00  0.00000000E+00  1.00000000E+00  0.00000000E+00  0.00000000E+00
  0.00000000E+00  0.00000000E+00  1.00000000E+00  0.00000000E+00  0.00000000E+00
  0.00000000E+00  0.00000000E+00  0.00000000E+00  1.00000000E+00  1.00000000E+00
  0.00000000E+00  1.00000000E+00  0.00000000E+00  0.00000000E+00  0.00000000E+00
  0.00000000E+00  0.00000000E+00  0.00000000E+00  0.00000000E+00  0.00000000E+00
  0.00000000E+00  0.00000000E+00
MxBond                                     I                2
NBond                                      I   N=           5
           1           2           2           2           1
IBond                                      I   N=          10
           2           0           1           3           2           4
           3           5           4           0
RBond                                      R   N=          10
  1.00000000E+00  0.00000000E+00  1.00000000E+00  1.00000000E+00  1.00000000E+00
  1.00000000E+00  1.00000000E+00  2.00000000E+00  2.00000000E+00  0.00000000E+00
Virial Ratio                               R      2.002361340263325E+00
SCF Energy                                 R     -2.795048331357663E+02
MP2 Energy                                 R     -2.804550277970641E+02
Total Energy                               R     -2.804550277970641E+02
Post-SCF wavefunction norm                 R      1.584855557890795E+00
RMS Force                                  R      3.268970334354708E-03
RMS Density                                R      4.852091980874787E-09
NImag                                      I                0
Job Status                                 I                1
Nuclear derivative order                   I                2
External E-field                           R   N=          35
  0.00000000E+00  0.00000000E+00  0.00000000E+00  0.00000000E+00  0.00000000E+00
  0.00000000E+00  0.00000000E+00  0.00000000E+00  0.00000000E+00  0.00000000E+00
  0.00000000E+00  0.00000000E+00  0.00000000E+00  0.00000000E+00  0.00000000E+00
  0.00000000E+00  0.00000000E+00  0.00000000E+00  0.00000000E+00  0.00000000E+00
  0.00000000E+00  0.00000000E+00  0.00000000E+00  0.00000000E+00  0.00000000E+00
  0.00000000E+00  0.00000000E+00  0.00000000E+00  0.00000000E+00  0.00000000E+00
  0.00000000E+00  0.00000000E+00  0.00000000E+00  0.00000000E+00  0.00000000E+00
IOpCl                                      I                0
IROHF                                      I                0
Alpha Orbital Energies                     R   N=         207
 -2.07196779E+01 -2.06869138E+01 -2.06703963E+01 -1.58262970E+01 -1.64095898E+00
 -1.49772721E+00 -1.29658690E+00 -9.59193217E-01 -8.30722295E-01 -7.57394448E-01
 -7.36977424E-01 -6.40525265E-01 -6.16151553E-01 -6.13504635E-01 -5.03889353E-01
 -5.01164712E-01  3.47961905E-02  6.03735664E-02  9.50509938E-02  1.00064148E-01
  1.19888037E-01  1.22068284E-01  1.47674220E-01  1.50700727E-01  1.77586326E-01
  1.80659011E-01  1.89914009E-01  2.10870235E-01  2.16484447E-01  2.32329422E-01
  2.46324518E-01  2.69336450E-01  3.11261017E-01  3.16219339E-01  3.37482351E-01
  3.43210861E-01  3.45348847E-01  3.92948301E-01  4.48368908E-01  4.87181157E-01
  5.04686869E-01  5.18201475E-01  5.45862482E-01  5.61133858E-01  5.99032458E-01
  6.19621151E-01  6.38326184E-01  6.88914160E-01  7.17209043E-01  7.24808084E-01
  7.40914808E-01  7.62704552E-01  7.65027733E-01  7.97146824E-01  8.06199218E-01
  8.41087200E-01  8.42826019E-01  8.51977986E-01  8.84519144E-01  9.05702356E-01
  9.27861862E-01  9.47291235E-01  9.55245796E-01  1.01741314E+00  1.03017110E+00
  1.05907240E+00  1.06597462E+00  1.09261213E+00  1.14224100E+00  1.15494206E+00
  1.16969070E+00  1.22117820E+00  1.22709914E+00  1.24479541E+00  1.34954666E+00
  1.36313231E+00  1.37116917E+00  1.46951473E+00  1.48646508E+00  1.50548027E+00
  1.54102433E+00  1.59490031E+00  1.59684278E+00  1.60524976E+00  1.62695351E+00
  1.69462144E+00  1.73766154E+00  1.80082705E+00  1.82968781E+00  1.88800180E+00
  1.88858937E+00  1.92781427E+00  1.97567837E+00  1.98905928E+00  2.05143045E+00
  2.12213528E+00  2.12925099E+00  2.16260226E+00  2.18685955E+00  2.24368043E+00
  2.25013235E+00  2.29082511E+00  2.34733028E+00  2.36454412E+00  2.38571117E+00
  2.40280746E+00  2.42261180E+00  2.46738474E+00  2.47529371E+00  2.52876378E+00
  2.53687532E+00  2.54558290E+00  2.55740287E+00  2.61407633E+00  2.62344064E+00
  2.66641095E+00  2.66818343E+00  2.74410114E+00  2.80352962E+00  2.81480412E+00
  2.83490973E+00  2.91257651E+00  2.98351910E+00  3.04026871E+00  3.04540552E+00
  3.11168733E+00  3.11368305E+00  3.16557734E+00  3.19866320E+00  3.30070915E+00
  3.32544699E+00  3.36209655E+00  3.45690549E+00  3.67860069E+00  3.86682426E+00
  3.92227593E+00  4.17811626E+00  4.21662611E+00  4.22171223E+00  4.26332680E+00
  4.36709674E+00  4.47847940E+00  4.51584160E+00  4.55142177E+00  4.59396754E+00
  4.69657760E+00  4.80568039E+00  4.89619502E+00  4.91233184E+00  4.93758689E+00
  4.99999905E+00  5.00604635E+00  5.10614582E+00  5.12878181E+00  5.18008933E+00
  5.24970668E+00  5.25840002E+00  5.31498443E+00  5.33154497E+00  5.35349687E+00
  5.55006012E+00  5.64452737E+00  5.70052860E+00  5.85192936E+00  5.99053743E+00
  6.29140308E+00  6.30295444E+00  6.34650133E+00  6.38746240E+00  6.60411399E+00
  6.65611836E+00  6.67444602E+00  6.69059321E+00  6.72908207E+00  6.79793728E+00
  6.79809860E+00  6.85597615E+00  6.96535284E+00  7.00467813E+00  7.04884904E+00
  7.06865246E+00  7.12909951E+00  7.16251632E+00  7.16476078E+00  7.18813721E+00
  7.23038335E+00  7.24144281E+00  7.26783871E+00  7.34235335E+00  7.38042469E+00
  7.41186054E+00  7.44181034E+00  7.45094573E+00  7.55660399E+00  7.64762431E+00
  7.65391589E+00  7.77692385E+00  7.85885894E+00  7.94201743E+00  8.04688775E+00
  8.26922948E+00  8.48634167E+00  8.63088937E+00  1.35367564E+01  1.47283499E+01
  1.50819886E+01  1.57348651E+01
Alpha MO coefficients                      R   N=       42849
  6.33164947E-05 -2.54005998E-05 -1.09815775E-03  6.35353678E-06 -5.76396809E-05
  4.63842918E-05  0.00000000E+00 -1.23960307E-04 -3.00240782E-04  0.00000000E+00
 -3.67165030E-05 -3.69633996E-04  0.00000000E+00  4.29329485E-05  0.00000000E+00
  0.00000000E+00 -2.44423010E-05  1.17412461E-06  2.24182726E-04  0.00000000E+00
  0.00000000E+00 -3.21375122E-05 -2.00056738E-04  3.00561132E-03 -1.35256996E-04
 -8.10022415E-05  3.27504815E-03  2.35731320E-03  9.45943904E-05 -5.04736616E-05
  0.00000000E+00 -6.30650252E-04  2.34500069E-04  0.00000000E+00 -1.80646126E-03
  1.05818017E-03  0.00000000E+00 -5.03931370E-04  2.42995094E-05  0.00000000E+00
  2.66149580E-05  0.00000000E+00  0.00000000E+00 -1.48983184E-05  5.50329091E-05
 -4.19853471E-04  0.00000000E+00  0.00000000E+00  3.82825492E-04 -6.47239991E-04
 -3.46807866E-04  0.00000000E+00  0.00000000E+00  5.05711494E-04 -7.44340655E-04
  0.00000000E+00  6.96677887E-05 -5.01936722E-05  0.00000000E+00  0.00000000E+00
 -2.41957964E-05  1.02967975E-04  0.00000000E+00  2.04702696E-04 -5.81195982E-05
  0.00000000E+00  0.00000000E+00 -1.66520661E-04  3.17902142E-04  9.76918609E-01
 -9.17112741E-03  4.33708167E-02  7.84253552E-04 -2.09703880E-03  3.81025864E-04
 -2.12775272E-03  0.00000000E+00 -2.22249916E-04  2.22562555E-03  0.00000000E+00
 -2.16530730E-03 -5.31219743E-04  0.00000000E+00 -1.92182354E-04  9.31651375E-05
  0.00000000E+00  1.26700914E-05  0.00000000E+00  0.00000000E+00 -1.08510493E-05
  4.51582144E-05  8.01415714E-04  0.00000000E+00  0.00000000E+00 -4.40243919E-04
 -2.01483894E-04 -1.59147063E-04  0.00000000E+00  0.00000000E+00 -5.19740047E-04
  3.34538933E-04  0.00000000E+00 -1.11177316E-05 -7.80843851E-05  0.00000000E+00
  0.00000000E+00 -6.29592084E-06  4.44732854E-05  0.00000000E+00  8.24278789E-05
  5.12621598E-06  0.00000000E+00  0.00000000E+00 -3.28424987E-04  3.66491806E-04
  1.04426735E-04  4.56798399E-04 -3.26283221E-04 -8.23697815E-04  3.97410583E-04
 -4.63887247E-05 -1.00205900E-04  0.00000000E+00  7.08521368E-04  1.10503452E-03
  0.00000000E+00 -7.59401474E-04 -6.35378954E-04  0.00000000E+00  2.06483695E-04
  2.18566484E-04  0.00000000E+00 -5.26975641E-05  0.00000000E+00  0.00000000E+00
  2.01678802E-05  9.23034319E-05 -4.18432405E-04  0.00000000E+00  0.00000000E+00
  6.42968555E-05  1.08837525E-03  2.66429420E-05  0.00000000E+00  0.00000000E+00
 -3.13055473E-04  4.34883948E-05  0.00000000E+00 -8.08756692E-05 -1.13669607E-04
  0.00000000E+00  0.00000000E+00 -9.34451331E-05  1.09894429E-04  0.00000000E+00
 -1.24332638E-04  4.50823885E-05  0.00000000E+00  0.00000000E+00  2.98284441E-05
  5.26305265E-04 -7.02270276E-04  5.40468310E-05 -7.00584111E-05  2.03302150E-04
 -2.20259401E-04 -2.92673290E-05 -4.13134932E-05  0.00000000E+00  1.71308835E-04
  2.56019716E-04  0.00000000E+00  5.15216772E-04  3.18045003E-04  0.00000000E+00
 -2.30241127E-04 -7.04852415E-05  0.00000000E+00 -1.33173567E-05  0.00000000E+00
  0.00000000E+00  3.80908312E-06  1.54282039E-05 -7.44479623E-07  0.00000000E+00
  0.00000000E+00 -1.67164364E-04  1.17907281E-05 -1.77920513E-05  0.00000000E+00
  0.00000000E+00 -1.76241128E-04 -4.27029130E-05  0.00000000E+00 -6.16334989E-06
 -9.11953562E-06  0.00000000E+00  0.00000000E+00 -2.18907967E-05  9.82193385E-06
  0.00000000E+00  4.17686051E-05  6.18262641E-05  0.00000000E+00  0.00000000E+00
  1.55851180E-04 -1.08602108E-04  4.12824548E-05  5.56472249E-05 -1.27998005E-04
 -2.85429924E-05  1.48273659E-05  9.14830625E-06  0.00000000E+00  2.39030922E-04
  5.44859957E-05  0.00000000E+00  1.33542490E-04  2.30026401E-05  0.00000000E+00
  1.52302491E-05  0.00000000E+00  0.00000000E+00 -1.36244850E-05  1.52660204E-05
  2.50120357E-05  0.00000000E+00  0.00000000E+00 -9.57841927E-05  6.25689234E-05
 -2.93792101E-04  2.81186302E-05 -1.69723231E-05 -5.12517742E-04  1.64053505E-04
  7.34045048E-06  1.34985108E-05  0.00000000E+00 -2.73980339E-06 -3.93558456E-05
  0.00000000E+00  1.64571756E-04  1.14688586E-04  0.00000000E+00 -5.01178994E-05
  4.99001397E-05  0.00000000E+00 -1.22280000E-06  0.00000000E+00  0.00000000E+00
 -8.42955485E-06 -1.18971003E-05  1.91714936E-05  0.00000000E+00  0.00000000E+00
  4.88367048E-05  1.05274972E-04  5.89245697E-05  0.00000000E+00  0.00000000E+00
 -2.41994734E-05 -6.86079528E-05  0.00000000E+00  7.73865576E-06  1.01191997E-05
  0.00000000E+00  0.00000000E+00 -1.09807570E-06 -2.33606212E-05  0.00000000E+00
 -1.47115163E-05 -3.30843928E-05  0.00000000E+00  0.00000000E+00 -3.97225052E-06
 -2.05273318E-05  7.32099419E-04  2.48109422E-05 -1.80137701E-05  2.69751899E-04
 -3.90545132E-04  1.69234687E-05  2.70044692E-05  0.00000000E+00 -6.78490863E-05
 -1.51633600E-04  0.00000000E+00  1.36601338E-04 -1.78080212E-04  0.00000000E+00
 -1.57480310E-04  1.42840060E-04  0.00000000E+00 -4.22451964E-06  0.00000000E+00
  0.00000000E+00 -2.91520718E-05 -9.05461012E-06 -4.92564174E-05  0.00000000E+00
  0.00000000E+00  7.81696652E-05  1.19019728E-04 -6.22550474E-05  0.00000000E+00
  0.00000000E+00  5.16555239E-05  3.28340147E-05  0.00000000E+00  3.17519569E-06
  3.44402429E-06  0.00000000E+00  0.00000000E+00 -8.35189452E-06 -1.92551738E-06
  0.00000000E+00  4.12128808E-06 -2.57899196E-05  0.00000000E+00  0.00000000E+00
  8.96588629E-05 -1.55229179E-04  2.37513150E-04  1.35979522E-03 -1.48168792E-04
 -6.85402939E-04  8.96100930E-04  6.25646541E-05 -7.16472749E-05  0.00000000E+00
  5.61400347E-04 -2.08213488E-03  0.00000000E+00  1.22793703E-04  4.83428115E-04
  0.00000000E+00  1.82295733E-04 -3.08370065E-04  0.00000000E+00 -1.27898664E-04
  0.00000000E+00  0.00000000E+00 -2.05588269E-04 -1.55995403E-04 -4.60753869E-04
  0.00000000E+00  0.00000000E+00 -6.14330527E-04 -9.07223258E-04 -4.20290951E-05
  0.00000000E+00  0.00000000E+00  6.43167930E-05  1.12584893E-04  0.00000000E+00
  8.57251191E-06  3.64944962E-05  0.00000000E+00  0.00000000E+00 -2.43242740E-05
 -3.62187337E-06  0.00000000E+00 -1.33178562E-04  1.60035798E-04  0.00000000E+00
  0.00000000E+00 -3.15365356E-04 -2.28526945E-05  9.76646384E-01 -9.88610766E-03
  4.35748020E-02  3.68044474E-03 -8.88660845E-04 -4.40903613E-04  2.13115584E-03
  0.00000000E+00  5.01932401E-04 -2.50508365E-03  0.00000000E+00 -6.51947562E-05
  8.11104000E-04  0.00000000E+00  1.04878328E-04 -6.46444626E-05  0.00000000E+00
 -1.94492220E-04  0.00000000E+00  0.00000000E+00 -7.44293572E-05 -4.21932287E-05
  4.08321161E-04  0.00000000E+00  0.00000000E+00  8.62295023E-04  4.74343031E-04
 -2.07233141E-04  0.00000000E+00  0.00000000E+00 -1.37821413E-04 -3.92142734E-05
  0.00000000E+00 -4.27042887E-06  7.02885911E-05  0.00000000E+00  0.00000000E+00
 -2.95984010E-05  1.09204284E-05  0.00000000E+00 -8.85303561E-05  9.23080950E-05
  0.00000000E+00  0.00000000E+00 -1.59842248E-04  2.06666930E-04  3.81167210E-04
  2.03572308E-03  1.31455597E-03 -1.03257180E-05  5.31618773E-05  2.77543454E-04
  0.00000000E+00  3.83128735E-04  1.05746190E-03  0.00000000E+00 -9.55631985E-05
  2.49328459E-04  0.00000000E+00 -2.57028135E-05  0.00000000E+00  0.00000000E+00
  2.41948698E-05 -2.83792053E-05 -2.14416856E-04  0.00000000E+00  0.00000000E+00
 -3.50536566E-04  3.95643573E-04  9.76852139E-01 -9.18605111E-03  4.34242359E-02
  3.33336659E-04 -1.74859204E-03 -2.00111994E-03 -8.55164077E-04  0.00000000E+00
  2.01271705E-03  8.15067841E-04  0.00000000E+00 -5.29229395E-04  6.86019991E-04
  0.00000000E+00  1.92323151E-04 -2.77064008E-04  0.00000000E+00  3.74449146E-05
  0.00000000E+00  0.00000000E+00 -8.24541584E-05  6.99565781E-05  7.42825258E-04
  0.00000000E+00  0.00000000E+00 -1.54895506E-04  3.15105930E-04 -2.55446020E-04
  0.00000000E+00  0.00000000E+00  3.69870278E-04 -2.27626112E-05  0.00000000E+00
 -7.69378739E-05 -2.13161660E-06  0.00000000E+00  0.00000000E+00  1.18942021E-05