title                                                                   
Freq      RMP2-FC                                                     Aug-CC-pVTZ         
Number of atoms                            I                5
Info1-9                                    I   N=           9
          33          24           0           0           0         100
           6           2           1
Full Title                                 C   N=           1
title       
Route                                      C   N=           4
#p freq mp2/aug-cc-pvtz density=current         
Charge                                     I                0
Multiplicity                               I                1
Number of electrons                        I               32
Number of alpha electrons                  I               16
Number of beta electrons                   I               16
Number of basis functions                  I              207
Number of independent functions            I              207
Number of point charges in /Mol/           I                0
Number of translation vectors              I                0
Atomic numbers                             I   N=           5
           1           8           8           7           8
Nuclear charges                            R   N=           5
  1.00000000E+00  8.00000000E+00  8.00000000E+00  7.00000000E+00  8.00000000E+00
Current cartesian coordinates              R   N=          15
  2.92920251E+00  3.19311882E+00  3.17715589E-32  2.74786889E+00  1.37102124E+00
  2.22920980E-31  1.81394622E-16  1.27930645E+00 -1.72986151E-31 -4.96969815E-01
 -1.43222980E+00  5.73092967E-32 -2.67917061E+00 -1.79626647E+00  3.49128042E-31
Number of symbols in /Mol/                 I                0
Force Field                                I                0
Atom Types                                 C   N=           5
                                                            
Int Atom Types                             I   N=           5
           0           0           0           0           0
MM charges                                 R   N=           5
  0.00000000E+00  0.00000000E+00  0.00000000E+00  0.00000000E+00  0.00000000E+00
Integer atomic weights                     I   N=           5
           1          16          16          14          16
Real atomic weights                        R   N=           5
  1.00782504E+00  1.59949146E+01  1.59949146E+01  1.40030740E+01  1.59949146E+01
Atom fragment info                         I   N=           5
           0           0           0           0           0
Atom residue num                           I   N=           5
           0           0           0           0           0
Nuclear spins                              I   N=           5
           1           0           0           2           0
Nuclear ZEff                               R   N=           5
 -1.00000000E+00 -5.60000000E+00 -5.60000000E+00 -4.55000000E+00 -5.60000000E+00
Nuclear ZNuc                               R   N=           5
  1.00000000E+00  8.00000000E+00  8.00000000E+00  7.00000000E+00  8.00000000E+00
Nuclear QMom                               R   N=           5
  0.00000000E+00  0.00000000E+00  0.00000000E+00  2.04400000E+00  0.00000000E+00
Nuclear GFac                               R   N=           5
  2.79284600E+00  0.00000000E+00  0.00000000E+00  4.03761000E-01  0.00000000E+00
MicOpt                                     I   N=           5
          -1          -1          -1          -1          -1
Number of residues                         I                0
Number of secondary structures             I                0
SymInf integers                            I   N=          26
           1           2           1           1           1           1
           1          -1           0           0           0           0
           0           0           0           0           0           0
           0           0           0           0           0           0
           0           0
RotTr to input orientation                 R   N=          12
 -9.95084451E-01 -8.71298970E-16 -9.90299727E-02  9.90299727E-02  7.79876962E-16
 -9.95084451E-01  9.44247252E-16 -1.00000000E+00 -6.89758725E-16  2.59858941E+00
  0.00000000E+00  3.46750173E+00
Number of contracted shells                I               65
Number of primitive shells                 I              119
Pure/Cartesian d shells                    I                0
Pure/Cartesian f shells                    I                0
Highest angular momentum                   I                3
Largest degree of contraction              I                7
Shell types                                I   N=          65
           0           0           0           0           1           1
           1          -2          -2           0           0           0
           0           0           1           1           1           1
          -2          -2          -2          -3          -3           0
           0           0           0           0           1           1
           1           1          -2          -2          -2          -3
          -3           0           0           0           0           0
           1           1           1           1          -2          -2
          -2          -3          -3           0           0           0
           0           0           1           1           1           1
          -2          -2          -2          -3          -3
Number of primitives per shell             I   N=          65
           3           1           1           1           1           1
           1           1           1           7           6           1
           1           1           3           1           1           1
           1           1           1           1           1           7
           6           1           1           1           3           1
           1           1           1           1           1           1
           1           7           6           1           1           1
           3           1           1           1           1           1
           1           1           1           7           6           1
           1           1           3           1           1           1
           1           1           1           1           1
Shell to atom map                          I   N=          65
           1           1           1           1           1           1
           1           1           1           2           2           2
           2           2           2           2           2           2
           2           2           2           2           2           3
           3           3           3           3           3           3
           3           3           3           3           3           3
           3           4           4           4           4           4
           4           4           4           4           4           4
           4           4           4           5           5           5
           5           5           5           5           5           5
           5           5           5           5           5
Primitive exponents                        R   N=         119
  3.38700000E+01  5.09500000E+00  1.15900000E+00  3.25800000E-01  1.02700000E-01
  2.52600000E-02  1.40700000E+00  3.88000000E-01  1.02000000E-01  1.05700000E+00
  2.47000000E-01  1.53300000E+04  2.29900000E+03  5.22400000E+02  1.47300000E+02
  4.75500000E+01  1.67600000E+01  6.20700000E+00  5.22400000E+02  1.47300000E+02
  4.75500000E+01  1.67600000E+01  6.20700000E+00  6.88200000E-01  1.75200000E+00
  2.38400000E-01  7.37600000E-02  3.44600000E+01  7.74900000E+00  2.28000000E+00
  7.15600000E-01  2.14000000E-01  5.97400000E-02  2.31400000E+00  6.45000000E-01
  2.14000000E-01  1.42800000E+00  5.00000000E-01  1.53300000E+04  2.29900000E+03
  5.22400000E+02  1.47300000E+02  4.75500000E+01  1.67600000E+01  6.20700000E+00
  5.22400000E+02  1.47300000E+02  4.75500000E+01  1.67600000E+01  6.20700000E+00
  6.88200000E-01  1.75200000E+00  2.38400000E-01  7.37600000E-02  3.44600000E+01
  7.74900000E+00  2.28000000E+00  7.15600000E-01  2.14000000E-01  5.97400000E-02
  2.31400000E+00  6.45000000E-01  2.14000000E-01  1.42800000E+00  5.00000000E-01
  1.14200000E+04  1.71200000E+03  3.89300000E+02  1.10000000E+02  3.55700000E+01
  1.25400000E+01  4.64400000E+00  3.89300000E+02  1.10000000E+02  3.55700000E+01
  1.25400000E+01  4.64400000E+00  5.11800000E-01  1.29300000E+00  1.78700000E-01
  5.76000000E-02  2.66300000E+01  5.94800000E+00  1.74200000E+00  5.55000000E-01
  1.72500000E-01  4.91000000E-02  1.65400000E+00  4.69000000E-01  1.51000000E-01
  1.09300000E+00  3.64000000E-01  1.53300000E+04  2.29900000E+03  5.22400000E+02
  1.47300000E+02  4.75500000E+01  1.67600000E+01  6.20700000E+00  5.22400000E+02
  1.47300000E+02  4.75500000E+01  1.67600000E+01  6.20700000E+00  6.88200000E-01
  1.75200000E+00  2.38400000E-01  7.37600000E-02  3.44600000E+01  7.74900000E+00
  2.28000000E+00  7.15600000E-01  2.14000000E-01  5.97400000E-02  2.31400000E+00
  6.45000000E-01  2.14000000E-01  1.42800000E+00  5.00000000E-01
Contraction coefficients                   R   N=         119
  2.54948632E-02  1.90362766E-01  8.52162022E-01  1.00000000E+00  1.00000000E+00
  1.00000000E+00  1.00000000E+00  1.00000000E+00  1.00000000E+00  1.00000000E+00
  1.00000000E+00  5.19808943E-04  4.02025621E-03  2.07128267E-02  8.10105536E-02
  2.35962985E-01  4.42653446E-01  3.57064423E-01 -4.42115008E-05 -1.22591041E-03
 -1.05517725E-02 -6.74452633E-02 -1.71198607E-01  1.07329856E+00  1.00000000E+00
  1.00000000E+00  1.00000000E+00  4.11634896E-02  2.57762836E-01  8.02419274E-01
  1.00000000E+00  1.00000000E+00  1.00000000E+00  1.00000000E+00  1.00000000E+00
  1.00000000E+00  1.00000000E+00  1.00000000E+00  5.19808943E-04  4.02025621E-03
  2.07128267E-02  8.10105536E-02  2.35962985E-01  4.42653446E-01  3.57064423E-01
 -4.42115008E-05 -1.22591041E-03 -1.05517725E-02 -6.74452633E-02 -1.71198607E-01
  1.07329856E+00  1.00000000E+00  1.00000000E+00  1.00000000E+00  4.11634896E-02
  2.57762836E-01  8.02419274E-01  1.00000000E+00  1.00000000E+00  1.00000000E+00
  1.00000000E+00  1.00000000E+00  1.00000000E+00  1.00000000E+00  1.00000000E+00
  5.34563860E-04  4.13435660E-03  2.12335358E-02  8.25006224E-02  2.38138871E-01
  4.42551547E-01  3.53757422E-01 -4.89867350E-05 -1.19527323E-03 -1.03490714E-02
 -6.48680190E-02 -1.71552477E-01  1.07289568E+00  1.00000000E+00  1.00000000E+00
  1.00000000E+00  3.98072123E-02  2.49002660E-01  8.10479727E-01  1.00000000E+00
  1.00000000E+00  1.00000000E+00  1.00000000E+00  1.00000000E+00  1.00000000E+00
  1.00000000E+00  1.00000000E+00  5.19808943E-04  4.02025621E-03  2.07128267E-02
  8.10105536E-02  2.35962985E-01  4.42653446E-01  3.57064423E-01 -4.42115008E-05
 -1.22591041E-03 -1.05517725E-02 -6.74452633E-02 -1.71198607E-01  1.07329856E+00
  1.00000000E+00  1.00000000E+00  1.00000000E+00  4.11634896E-02  2.57762836E-01
  8.02419274E-01  1.00000000E+00  1.00000000E+00  1.00000000E+00  1.00000000E+00
  1.00000000E+00  1.00000000E+00  1.00000000E+00  1.00000000E+00
Coordinates of each shell                  R   N=         195
  2.92920251E+00  3.19311882E+00  0.00000000E+00  2.92920251E+00  3.19311882E+00
  0.00000000E+00  2.92920251E+00  3.19311882E+00  0.00000000E+00  2.92920251E+00
  3.19311882E+00  0.00000000E+00  2.92920251E+00  3.19311882E+00  0.00000000E+00
  2.92920251E+00  3.19311882E+00  0.00000000E+00  2.92920251E+00  3.19311882E+00
  0.00000000E+00  2.92920251E+00  3.19311882E+00  0.00000000E+00  2.92920251E+00
  3.19311882E+00  0.00000000E+00  2.74786889E+00  1.37102124E+00  0.00000000E+00
  2.74786889E+00  1.37102124E+00  0.00000000E+00  2.74786889E+00  1.37102124E+00
  0.00000000E+00  2.74786889E+00  1.37102124E+00  0.00000000E+00  2.74786889E+00
  1.37102124E+00  0.00000000E+00  2.74786889E+00  1.37102124E+00  0.00000000E+00
  2.74786889E+00  1.37102124E+00  0.00000000E+00  2.74786889E+00  1.37102124E+00
  0.00000000E+00  2.74786889E+00  1.37102124E+00  0.00000000E+00  2.74786889E+00
  1.37102124E+00  0.00000000E+00  2.74786889E+00  1.37102124E+00  0.00000000E+00
  2.74786889E+00  1.37102124E+00  0.00000000E+00  2.74786889E+00  1.37102124E+00
  0.00000000E+00  2.74786889E+00  1.37102124E+00  0.00000000E+00  4.86902856E-18
  1.27930645E+00  0.00000000E+00  4.86902856E-18  1.27930645E+00  0.00000000E+00
  4.86902856E-18  1.27930645E+00  0.00000000E+00  4.86902856E-18  1.27930645E+00
  0.00000000E+00  4.86902856E-18  1.27930645E+00  0.00000000E+00  4.86902856E-18
  1.27930645E+00  0.00000000E+00  4.86902856E-18  1.27930645E+00  0.00000000E+00
  4.86902856E-18  1.27930645E+00  0.00000000E+00  4.86902856E-18  1.27930645E+00
  0.00000000E+00  4.86902856E-18  1.27930645E+00  0.00000000E+00  4.86902856E-18
  1.27930645E+00  0.00000000E+00  4.86902856E-18  1.27930645E+00  0.00000000E+00
  4.86902856E-18  1.27930645E+00  0.00000000E+00  4.86902856E-18  1.27930645E+00
  0.00000000E+00 -4.96969815E-01 -1.43222980E+00  0.00000000E+00 -4.96969815E-01
 -1.43222980E+00  0.00000000E+00 -4.96969815E-01 -1.43222980E+00  0.00000000E+00
 -4.96969815E-01 -1.43222980E+00  0.00000000E+00 -4.96969815E-01 -1.43222980E+00
  0.00000000E+00 -4.96969815E-01 -1.43222980E+00  0.00000000E+00 -4.96969815E-01
 -1.43222980E+00  0.00000000E+00 -4.96969815E-01 -1.43222980E+00  0.00000000E+00
 -4.96969815E-01 -1.43222980E+00  0.00000000E+00 -4.96969815E-01 -1.43222980E+00
  0.00000000E+00 -4.96969815E-01 -1.43222980E+00  0.00000000E+00 -4.96969815E-01
 -1.43222980E+00  0.00000000E+00 -4.96969815E-01 -1.43222980E+00  0.00000000E+00
 -4.96969815E-01 -1.43222980E+00  0.00000000E+00 -2.67917061E+00 -1.79626647E+00
  0.00000000E+00 -2.67917061E+00 -1.79626647E+00  0.00000000E+00 -2.67917061E+00
 -1.79626647E+00  0.00000000E+00 -2.67917061E+00 -1.79626647E+00  0.00000000E+00
 -2.67917061E+00 -1.79626647E+00  0.00000000E+00 -2.67917061E+00 -1.79626647E+00
  0.00000000E+00 -2.67917061E+00 -1.79626647E+00  0.00000000E+00 -2.67917061E+00
 -1.79626647E+00  0.00000000E+00 -2.67917061E+00 -1.79626647E+00  0.00000000E+00
 -2.67917061E+00 -1.79626647E+00  0.00000000E+00 -2.67917061E+00 -1.79626647E+00
  0.00000000E+00 -2.67917061E+00 -1.79626647E+00  0.00000000E+00 -2.67917061E+00
 -1.79626647E+00  0.00000000E+00 -2.67917061E+00 -1.79626647E+00  0.00000000E+00
Num ILSW                                   I              100
ILSW                                       I   N=         100
           0           0           0           0           2           0
           0           0           0           0           0          -1
           5           0           0           0           2           0
           0           0           0           0           1           0
           1           0           0           0           0           0
           0           0      100000           0          -1           0
           0           0           0           0           0           0
           0           0           0           1           1           0
           0 -2000000000           1           0           0           0
           0           0           4          52           0           0
           0           0           0           0           0           0
           0           0           0           5           4           1
           0           0           0           0           0           0
           0           0           0           0           0           0
           0           0           0           0           0           0
           0           0           0           0           0           0
           0           0           0           0
Num RLSW                                   I               52
RLSW                                       R   N=          52
  1.00000000E+00  1.00000000E+00  1.00000000E+00  1.00000000E+00  1.00000000E+00
  0.00000000E+00  0.00000000E+00  1.00000000E+00  0.00000000E+00  0.00000000E+00
  0.00000000E+00  0.00000000E+00  1.00000000E+00  0.00000000E+00  0.00000000E+00
  0.00000000E+00  0.00000000E+00  1.00000000E+00  0.00000000E+00  0.00000000E+00
  0.00000000E+00  0.00000000E+00  1.00000000E+00  0.00000000E+00  0.00000000E+00
  0.00000000E+00  0.00000000E+00  1.00000000E+00  0.00000000E+00  0.00000000E+00
  0.00000000E+00  0.00000000E+00  1.00000000E+00  0.00000000E+00  0.00000000E+00
  0.00000000E+00  0.00000000E+00  0.00000000E+00  1.00000000E+00  1.00000000E+00
  0.00000000E+00  1.00000000E+00  0.00000000E+00  0.00000000E+00  0.00000000E+00
  0.00000000E+00  0.00000000E+00  0.00000000E+00  0.00000000E+00  0.00000000E+00
  0.00000000E+00  0.00000000E+00
MxBond                                     I                2
NBond                                      I   N=           5
           1           2           2           2           1
IBond                                      I   N=          10
           2           0           1           3           2           4
           3           5           4           0
RBond                                      R   N=          10
  1.00000000E+00  0.00000000E+00  1.00000000E+00  1.00000000E+00  1.00000000E+00
  1.00000000E+00  1.00000000E+00  2.00000000E+00  2.00000000E+00  0.00000000E+00
Virial Ratio                               R      2.002372209586011E+00
SCF Energy                                 R     -2.795015846766244E+02
MP2 Energy                                 R     -2.804466888510790E+02
Total Energy                               R     -2.804466888510790E+02
Post-SCF wavefunction norm                 R      1.584285609433165E+00
RMS Force                                  R      1.471427964022932E-03
RMS Density                                R      3.827989380651624E-09
NImag                                      I                1
Job Status                                 I                1
Nuclear derivative order                   I                2
External E-field                           R   N=          35
  0.00000000E+00  0.00000000E+00  0.00000000E+00  0.00000000E+00  0.00000000E+00
  0.00000000E+00  0.00000000E+00  0.00000000E+00  0.00000000E+00  0.00000000E+00
  0.00000000E+00  0.00000000E+00  0.00000000E+00  0.00000000E+00  0.00000000E+00
  0.00000000E+00  0.00000000E+00  0.00000000E+00  0.00000000E+00  0.00000000E+00
  0.00000000E+00  0.00000000E+00  0.00000000E+00  0.00000000E+00  0.00000000E+00
  0.00000000E+00  0.00000000E+00  0.00000000E+00  0.00000000E+00  0.00000000E+00
  0.00000000E+00  0.00000000E+00  0.00000000E+00  0.00000000E+00  0.00000000E+00
IOpCl                                      I                0
IROHF                                      I                0
Alpha Orbital Energies                     R   N=         207
 -2.06912131E+01 -2.06845709E+01 -2.06604765E+01 -1.58125576E+01 -1.62338507E+00
 -1.49631852E+00 -1.25503988E+00 -9.47865208E-01 -7.73201956E-01 -7.58919074E-01
 -7.11646856E-01 -6.79574598E-01 -6.20762036E-01 -5.90105559E-01 -4.85592120E-01
 -4.71532711E-01  2.95669700E-02  7.20049791E-02  8.57897544E-02  1.01728543E-01
  1.33996454E-01  1.34002085E-01  1.44047021E-01  1.54584669E-01  1.78175009E-01
  1.94205658E-01  1.99777779E-01  2.06210193E-01  2.20817207E-01  2.34649015E-01
  2.37274782E-01  2.65491376E-01  2.94028770E-01  3.04129562E-01  3.10598638E-01
  3.43179753E-01  3.49850239E-01  3.86948774E-01  4.21666881E-01  4.31377634E-01
  5.26608179E-01  5.29862925E-01  5.58825382E-01  5.82434375E-01  6.26410323E-01
  6.36599282E-01  6.74246924E-01  6.84320685E-01  7.07572271E-01  7.10870580E-01
  7.24388544E-01  7.29585256E-01  7.45452097E-01  7.90258163E-01  7.91659511E-01
  8.09896161E-01  8.12414439E-01  8.30259999E-01  8.68266653E-01  9.07765854E-01
  9.21745606E-01  9.24657011E-01  9.56704800E-01  9.78987863E-01  9.84457183E-01
  1.01616001E+00  1.05208345E+00  1.05471198E+00  1.08195257E+00  1.11799264E+00
  1.14072274E+00  1.18903778E+00  1.22235993E+00  1.23228753E+00  1.33846433E+00
  1.34937749E+00  1.38490679E+00  1.45226709E+00  1.48793735E+00  1.50978770E+00
  1.53852622E+00  1.56614316E+00  1.57991793E+00  1.61373574E+00  1.66381230E+00
  1.66856332E+00  1.70403231E+00  1.79344984E+00  1.83231343E+00  1.83429701E+00
  1.87687798E+00  1.91134421E+00  1.95583710E+00  1.99130935E+00  2.00780386E+00
  2.07570836E+00  2.11977491E+00  2.13291997E+00  2.14903752E+00  2.22341982E+00
  2.26257001E+00  2.26405901E+00  2.28972979E+00  2.31422614E+00  2.34196080E+00
  2.38606126E+00  2.42292419E+00  2.42884224E+00  2.45582516E+00  2.46520427E+00
  2.47601490E+00  2.50178025E+00  2.58973821E+00  2.59522014E+00  2.61868398E+00
  2.62605348E+00  2.63481774E+00  2.66551749E+00  2.76008802E+00  2.83008514E+00
  2.85989273E+00  2.87919082E+00  2.89433338E+00  2.91463669E+00  2.96165138E+00
  3.02382420E+00  3.07077057E+00  3.11859137E+00  3.20469534E+00  3.22864108E+00
  3.31511028E+00  3.34420137E+00  3.51140715E+00  3.64668127E+00  3.83847193E+00
  3.84471369E+00  4.14814210E+00  4.16017670E+00  4.18321777E+00  4.25738732E+00
  4.35376583E+00  4.39304698E+00  4.46329935E+00  4.51850095E+00  4.66521090E+00
  4.70974247E+00  4.80694923E+00  4.82180893E+00  4.82768782E+00  4.89526948E+00
  5.02230259E+00  5.07814953E+00  5.10105404E+00  5.14316045E+00  5.18241519E+00
  5.24136846E+00  5.27074068E+00  5.31050307E+00  5.32891561E+00  5.35721631E+00
  5.60846298E+00  5.67362677E+00  5.76033464E+00  5.82906790E+00  5.95780172E+00
  6.16796511E+00  6.30747182E+00  6.33939479E+00  6.39404133E+00  6.49202604E+00
  6.50323580E+00  6.61287349E+00  6.66779756E+00  6.69616076E+00  6.75730234E+00
  6.76229247E+00  6.82919704E+00  6.90130226E+00  7.01249476E+00  7.05524436E+00
  7.05691133E+00  7.08892270E+00  7.12532846E+00  7.14826450E+00  7.18099460E+00
  7.22450038E+00  7.24118632E+00  7.30701474E+00  7.32491339E+00  7.34775246E+00
  7.39985670E+00  7.43202939E+00  7.48558538E+00  7.60701602E+00  7.61793722E+00
  7.62738037E+00  7.66310373E+00  7.78400768E+00  7.89109318E+00  8.09215587E+00
  8.31427389E+00  8.40916716E+00  8.54487964E+00  1.33839322E+01  1.44027386E+01
  1.51572816E+01  1.61506997E+01
Alpha MO coefficients                      R   N=       42849
  9.17786927E-05 -6.50236769E-04 -7.26746228E-04 -4.97701141E-06 -2.12400080E-05
 -2.66502530E-05  0.00000000E+00 -4.36557876E-05  6.34348038E-05  0.00000000E+00
  8.71103972E-05  3.57357115E-05  0.00000000E+00  3.19127693E-05  0.00000000E+00
  0.00000000E+00 -4.92871751E-05  2.12622489E-05 -5.94862231E-06  0.00000000E+00
  0.00000000E+00 -1.37357119E-04  1.17594677E-04  4.60692500E-03 -2.82516081E-04
  1.58905784E-05  1.57074532E-03  1.82342792E-03  1.05924255E-04  7.33801890E-06
  0.00000000E+00 -6.16165059E-04 -3.44100313E-05  0.00000000E+00 -1.10255422E-03
  8.06622953E-04  0.00000000E+00 -4.02921923E-04  6.46133056E-05  0.00000000E+00
  2.87736632E-05  0.00000000E+00  0.00000000E+00 -5.39436871E-05  5.80476716E-06
 -3.78072889E-04  0.00000000E+00  0.00000000E+00  7.38339906E-04 -3.27214914E-05
 -4.47206448E-04  0.00000000E+00  0.00000000E+00  2.39351567E-04 -1.99148697E-05
  0.00000000E+00  7.99303076E-05  1.26254338E-05  0.00000000E+00  0.00000000E+00
 -1.09568147E-04 -3.20522729E-06  0.00000000E+00  2.54161856E-04 -2.80748603E-05
  0.00000000E+00  0.00000000E+00 -3.52494452E-04  5.07782839E-05  9.76911283E-01
 -9.21577559E-03  4.33183187E-02  2.04642939E-03 -9.28563366E-04  1.48972128E-03
 -1.36328082E-03  0.00000000E+00 -1.43113445E-03  1.39246977E-03  0.00000000E+00
  7.95795408E-05 -1.17285879E-03  0.00000000E+00 -1.34747664E-04 -1.07819855E-05
  0.00000000E+00  4.59400814E-05  0.00000000E+00  0.00000000E+00 -3.60422217E-05
  2.08986799E-05  7.46314641E-04  0.00000000E+00  0.00000000E+00 -2.29950807E-04
 -3.88971530E-04 -3.55313322E-04  0.00000000E+00  0.00000000E+00 -3.19974535E-04
 -3.84271593E-04  0.00000000E+00  4.75835006E-05 -4.92403054E-05  0.00000000E+00
  0.00000000E+00 -3.87002947E-05 -1.63490015E-05  0.00000000E+00  2.23565699E-05
  2.16973621E-05  0.00000000E+00  0.00000000E+00 -3.06553426E-04 -1.38441706E-04
  3.91919787E-05  4.62286473E-05 -2.65554595E-04 -6.88838967E-04 -1.27888904E-04
 -2.75215411E-05 -9.80847812E-05  0.00000000E+00  2.68618713E-04  7.14562524E-04
  0.00000000E+00 -8.53398311E-04 -4.92483206E-04  0.00000000E+00 -1.25979999E-04
 -2.47415394E-05  0.00000000E+00 -1.80284175E-05  0.00000000E+00  0.00000000E+00
 -2.93765611E-05  1.42322125E-05 -3.29921476E-04  0.00000000E+00  0.00000000E+00
 -8.31324216E-04  1.30698736E-04 -3.64997009E-05  0.00000000E+00  0.00000000E+00
  1.00858776E-04 -1.12378009E-04  0.00000000E+00 -2.09117264E-05 -1.20380086E-04
  0.00000000E+00  0.00000000E+00 -6.28906016E-05 -1.38221199E-04  0.00000000E+00
  1.84772029E-06 -1.52163683E-04  0.00000000E+00  0.00000000E+00  4.43583350E-05
 -4.21956209E-04 -2.52662036E-03  1.15998163E-04 -1.23312479E-04 -2.58939127E-04
  1.23268964E-04 -8.13257800E-06 -2.92717528E-05  0.00000000E+00  6.60738531E-05
  1.70790454E-04  0.00000000E+00  2.24888984E-04  2.08142311E-04  0.00000000E+00
  1.23970780E-04  2.29000098E-05  0.00000000E+00 -2.90888966E-06  0.00000000E+00
  0.00000000E+00 -1.75858232E-05  6.88435317E-07 -2.89137057E-06  0.00000000E+00
  0.00000000E+00  7.38054426E-05  9.37999373E-05 -1.03026597E-04  0.00000000E+00
  0.00000000E+00  1.59076849E-04  1.64390600E-04  0.00000000E+00  1.54018347E-05
 -4.21298810E-06  0.00000000E+00  0.00000000E+00 -5.38115087E-06 -1.17906571E-05
  0.00000000E+00 -3.54679967E-05  4.62609766E-05  0.00000000E+00  0.00000000E+00
  7.92553366E-05  9.07096697E-05  3.88227010E-05 -9.97601351E-04 -4.93604576E-04
 -1.09745424E-05 -2.33522941E-05  1.67882736E-05  0.00000000E+00  3.15109728E-06
  2.81069998E-04  0.00000000E+00 -3.95667933E-05  1.35524552E-04  0.00000000E+00
  2.63348307E-05  0.00000000E+00  0.00000000E+00  1.33774928E-05  1.10024273E-05
 -2.57853036E-05  0.00000000E+00  0.00000000E+00  1.07610606E-05  3.44139823E-05
  1.11735332E-04  8.41823452E-05 -2.84361125E-05  7.69163337E-04  6.48531594E-04
  1.01475308E-05  2.46235936E-06  0.00000000E+00 -7.16714389E-05  1.83627230E-05
  0.00000000E+00  3.29745902E-04  8.92971992E-04  0.00000000E+00  5.10939940E-06
  7.94315214E-05  0.00000000E+00 -2.23400731E-06  0.00000000E+00  0.00000000E+00
 -7.05561016E-08 -6.80933405E-06 -3.67608621E-05  0.00000000E+00  0.00000000E+00
 -2.21801589E-05  8.80694152E-05 -2.28690372E-05  0.00000000E+00  0.00000000E+00
 -2.64872843E-04 -1.55892267E-04  0.00000000E+00  9.38607055E-06  5.89859097E-06
  0.00000000E+00  0.00000000E+00  2.87825282E-06 -1.90354451E-05  0.00000000E+00
 -4.14615732E-05 -3.76021237E-05  0.00000000E+00  0.00000000E+00 -7.76933868E-05
  1.72256626E-05  2.56478958E-03  3.82715692E-05  8.59567701E-05 -5.52394250E-05
 -4.48886500E-04  8.49350546E-06  1.77767201E-05  0.00000000E+00 -6.62171190E-05
 -6.33778328E-05  0.00000000E+00  2.10559131E-04 -1.89371960E-04  0.00000000E+00
 -1.81789550E-04 -6.14804063E-05  0.00000000E+00 -8.43152714E-06  0.00000000E+00
  0.00000000E+00  2.24671449E-05  1.84127914E-05  4.00198233E-07  0.00000000E+00
  0.00000000E+00 -1.19780276E-04 -3.67276174E-05 -8.99525614E-06  0.00000000E+00
  0.00000000E+00 -2.22218691E-04 -1.84724266E-04  0.00000000E+00  4.44482007E-06
  1.20799029E-06  0.00000000E+00  0.00000000E+00  3.41096075E-06 -1.49223610E-05
  0.00000000E+00 -4.74932011E-05  1.54400859E-06  0.00000000E+00  0.00000000E+00
 -7.42692941E-05  1.92594532E-04  2.59158252E-04  1.46974930E-03 -7.62954940E-05
 -1.57835189E-03  3.86145550E-04 -1.43832966E-04 -2.16083419E-07  0.00000000E+00
 -2.09234887E-03 -4.32768960E-04  0.00000000E+00  1.06465508E-03  7.77353366E-04
  0.00000000E+00 -1.74462911E-04  4.82917499E-05  0.00000000E+00 -1.23941874E-04
  0.00000000E+00  0.00000000E+00  2.40164345E-04  9.94559499E-05 -4.38833641E-04
  0.00000000E+00  0.00000000E+00  9.07829140E-04 -4.79155536E-05  1.58975590E-05
  0.00000000E+00  0.00000000E+00 -3.37527848E-04 -1.26172410E-04  0.00000000E+00
 -6.39947218E-07  1.58419909E-05  0.00000000E+00  0.00000000E+00  1.83271326E-05
  1.48241080E-05  0.00000000E+00  1.62600758E-04 -6.98262207E-05  0.00000000E+00
  0.00000000E+00 -2.45320423E-04  3.91318769E-05  9.76650725E-01 -9.84709300E-03
  4.35662018E-02  4.52143132E-03 -4.41572904E-04  2.14110896E-03  5.16215008E-04
  0.00000000E+00 -2.37669548E-03 -6.41013287E-04  0.00000000E+00  1.14253501E-03
 -3.09621256E-06  0.00000000E+00  5.71125223E-06 -4.01044477E-05  0.00000000E+00
 -2.31747005E-04  0.00000000E+00  0.00000000E+00  1.02563387E-04  3.38513680E-05
  3.91608257E-04  0.00000000E+00  0.00000000E+00 -8.23167120E-04 -4.46406058E-04
 -1.50079392E-04  0.00000000E+00  0.00000000E+00  2.59566396E-04  1.54040964E-05
  0.00000000E+00  5.20399358E-05  1.79551467E-05  0.00000000E+00  0.00000000E+00
 -2.21464566E-05 -1.44733397E-05  0.00000000E+00  1.38648239E-04  1.30040449E-05
  0.00000000E+00  0.00000000E+00 -1.82760760E-04 -1.49474923E-04  4.74689740E-04
  2.06584752E-03  1.20068772E-04  1.50319688E-05 -4.13974258E-05 -2.46742828E-04
  0.00000000E+00  1.09665722E-04 -1.27702631E-03  0.00000000E+00  3.06557223E-04
 -3.40721852E-04  0.00000000E+00 -2.75117090E-06  0.00000000E+00  0.00000000E+00
  7.58486977E-05  1.53787016E-05 -1.60420795E-04  0.00000000E+00  0.00000000E+00
 -5.37151000E-04 -2.15629485E-05  9.76830476E-01 -9.16312190E-03  4.34491029E-02
  1.59672968E-04 -1.12995371E-03 -1.56256323E-03  1.44405502E-03  0.00000000E+00
  1.57448739E-03 -1.28691228E-03  0.00000000E+00 -5.72489177E-04 -8.70283581E-04
  0.00000000E+00  5.48639888E-05 -2.78928829E-05  0.00000000E+00  2.96875074E-05
  0.00000000E+00  0.00000000E+00 -1.18259317E-04 -2.89547257E-06  7.57951440E-04
  0.00000000E+00  0.00000000E+00 -2.02841398E-04 -2.35419604E-04 -2.65815279E-04
  0.00000000E+00  0.00000000E+00  1.70843715E-04  1.27921855E-04  0.00000000E+00
 -6.41434158E-05  1.33042305E-06  0.00000000E+00  0.00000000E+00  1.89466550E-05