title                                                                   
Freq      RMP2-FC                                                     Aug-CC-pVTZ         
Number of atoms                            I                5
Info1-9                                    I   N=           9
          33          24           0           0           0         100
           6           2           1
Full Title                                 C   N=           1
title       
Route                                      C   N=           4
#p freq mp2/aug-cc-pvtz density=current         
Charge                                     I                0
Multiplicity                               I                1
Number of electrons                        I               32
Number of alpha electrons                  I               16
Number of beta electrons                   I               16
Number of basis functions                  I              207
Number of independent functions            I              207
Number of point charges in /Mol/           I                0
Number of translation vectors              I                0
Atomic numbers                             I   N=           5
           1           8           8           7           8
Nuclear charges                            R   N=           5
  1.00000000E+00  8.00000000E+00  8.00000000E+00  7.00000000E+00  8.00000000E+00
Current cartesian coordinates              R   N=          15
  2.09764309E+00 -1.13153701E+00  0.00000000E+00  2.48712980E+00  6.89365692E-01
  0.00000000E+00  9.21455172E-17  1.73021369E+00  6.16297582E-33 -1.87256055E+00
 -8.78001449E-02  0.00000000E+00 -1.11084471E+00 -2.20131213E+00  2.46519033E-32
Number of symbols in /Mol/                 I                0
Force Field                                I                0
Atom Types                                 C   N=           5
                                                            
Int Atom Types                             I   N=           5
           0           0           0           0           0
MM charges                                 R   N=           5
  0.00000000E+00  0.00000000E+00  0.00000000E+00  0.00000000E+00  0.00000000E+00
Integer atomic weights                     I   N=           5
           1          16          16          14          16
Real atomic weights                        R   N=           5
  1.00782504E+00  1.59949146E+01  1.59949146E+01  1.40030740E+01  1.59949146E+01
Atom fragment info                         I   N=           5
           0           0           0           0           0
Atom residue num                           I   N=           5
           0           0           0           0           0
Nuclear spins                              I   N=           5
           1           0           0           2           0
Nuclear ZEff                               R   N=           5
 -1.00000000E+00 -5.60000000E+00 -5.60000000E+00 -4.55000000E+00 -5.60000000E+00
Nuclear ZNuc                               R   N=           5
  1.00000000E+00  8.00000000E+00  8.00000000E+00  7.00000000E+00  8.00000000E+00
Nuclear QMom                               R   N=           5
  0.00000000E+00  0.00000000E+00  0.00000000E+00  2.04400000E+00  0.00000000E+00
Nuclear GFac                               R   N=           5
  2.79284600E+00  0.00000000E+00  0.00000000E+00  4.03761000E-01  0.00000000E+00
MicOpt                                     I   N=           5
          -1          -1          -1          -1          -1
Number of residues                         I                0
Number of secondary structures             I                0
SymInf integers                            I   N=          26
           1           2           1           1           1           1
           1          -1           0           0           0           0
           0           0           0           0           0           0
           0           0           0           0           0           0
           0           0
RotTr to input orientation                 R   N=          12
 -9.77880105E-01 -1.24380936E-16  2.09166204E-01  2.09166204E-01  2.66047833E-17
  9.77880105E-01 -1.27194464E-16  1.00000000E+00  0.00000000E+00  2.28792275E+00
  0.00000000E+00  6.67751485E-01
Number of contracted shells                I               65
Number of primitive shells                 I              119
Pure/Cartesian d shells                    I                0
Pure/Cartesian f shells                    I                0
Highest angular momentum                   I                3
Largest degree of contraction              I                7
Shell types                                I   N=          65
           0           0           0           0           1           1
           1          -2          -2           0           0           0
           0           0           1           1           1           1
          -2          -2          -2          -3          -3           0
           0           0           0           0           1           1
           1           1          -2          -2          -2          -3
          -3           0           0           0           0           0
           1           1           1           1          -2          -2
          -2          -3          -3           0           0           0
           0           0           1           1           1           1
          -2          -2          -2          -3          -3
Number of primitives per shell             I   N=          65
           3           1           1           1           1           1
           1           1           1           7           6           1
           1           1           3           1           1           1
           1           1           1           1           1           7
           6           1           1           1           3           1
           1           1           1           1           1           1
           1           7           6           1           1           1
           3           1           1           1           1           1
           1           1           1           7           6           1
           1           1           3           1           1           1
           1           1           1           1           1
Shell to atom map                          I   N=          65
           1           1           1           1           1           1
           1           1           1           2           2           2
           2           2           2           2           2           2
           2           2           2           2           2           3
           3           3           3           3           3           3
           3           3           3           3           3           3
           3           4           4           4           4           4
           4           4           4           4           4           4
           4           4           4           5           5           5
           5           5           5           5           5           5
           5           5           5           5           5
Primitive exponents                        R   N=         119
  3.38700000E+01  5.09500000E+00  1.15900000E+00  3.25800000E-01  1.02700000E-01
  2.52600000E-02  1.40700000E+00  3.88000000E-01  1.02000000E-01  1.05700000E+00
  2.47000000E-01  1.53300000E+04  2.29900000E+03  5.22400000E+02  1.47300000E+02
  4.75500000E+01  1.67600000E+01  6.20700000E+00  5.22400000E+02  1.47300000E+02
  4.75500000E+01  1.67600000E+01  6.20700000E+00  6.88200000E-01  1.75200000E+00
  2.38400000E-01  7.37600000E-02  3.44600000E+01  7.74900000E+00  2.28000000E+00
  7.15600000E-01  2.14000000E-01  5.97400000E-02  2.31400000E+00  6.45000000E-01
  2.14000000E-01  1.42800000E+00  5.00000000E-01  1.53300000E+04  2.29900000E+03
  5.22400000E+02  1.47300000E+02  4.75500000E+01  1.67600000E+01  6.20700000E+00
  5.22400000E+02  1.47300000E+02  4.75500000E+01  1.67600000E+01  6.20700000E+00
  6.88200000E-01  1.75200000E+00  2.38400000E-01  7.37600000E-02  3.44600000E+01
  7.74900000E+00  2.28000000E+00  7.15600000E-01  2.14000000E-01  5.97400000E-02
  2.31400000E+00  6.45000000E-01  2.14000000E-01  1.42800000E+00  5.00000000E-01
  1.14200000E+04  1.71200000E+03  3.89300000E+02  1.10000000E+02  3.55700000E+01
  1.25400000E+01  4.64400000E+00  3.89300000E+02  1.10000000E+02  3.55700000E+01
  1.25400000E+01  4.64400000E+00  5.11800000E-01  1.29300000E+00  1.78700000E-01
  5.76000000E-02  2.66300000E+01  5.94800000E+00  1.74200000E+00  5.55000000E-01
  1.72500000E-01  4.91000000E-02  1.65400000E+00  4.69000000E-01  1.51000000E-01
  1.09300000E+00  3.64000000E-01  1.53300000E+04  2.29900000E+03  5.22400000E+02
  1.47300000E+02  4.75500000E+01  1.67600000E+01  6.20700000E+00  5.22400000E+02
  1.47300000E+02  4.75500000E+01  1.67600000E+01  6.20700000E+00  6.88200000E-01
  1.75200000E+00  2.38400000E-01  7.37600000E-02  3.44600000E+01  7.74900000E+00
  2.28000000E+00  7.15600000E-01  2.14000000E-01  5.97400000E-02  2.31400000E+00
  6.45000000E-01  2.14000000E-01  1.42800000E+00  5.00000000E-01
Contraction coefficients                   R   N=         119
  2.54948632E-02  1.90362766E-01  8.52162022E-01  1.00000000E+00  1.00000000E+00
  1.00000000E+00  1.00000000E+00  1.00000000E+00  1.00000000E+00  1.00000000E+00
  1.00000000E+00  5.19808943E-04  4.02025621E-03  2.07128267E-02  8.10105536E-02
  2.35962985E-01  4.42653446E-01  3.57064423E-01 -4.42115008E-05 -1.22591041E-03
 -1.05517725E-02 -6.74452633E-02 -1.71198607E-01  1.07329856E+00  1.00000000E+00
  1.00000000E+00  1.00000000E+00  4.11634896E-02  2.57762836E-01  8.02419274E-01
  1.00000000E+00  1.00000000E+00  1.00000000E+00  1.00000000E+00  1.00000000E+00
  1.00000000E+00  1.00000000E+00  1.00000000E+00  5.19808943E-04  4.02025621E-03
  2.07128267E-02  8.10105536E-02  2.35962985E-01  4.42653446E-01  3.57064423E-01
 -4.42115008E-05 -1.22591041E-03 -1.05517725E-02 -6.74452633E-02 -1.71198607E-01
  1.07329856E+00  1.00000000E+00  1.00000000E+00  1.00000000E+00  4.11634896E-02
  2.57762836E-01  8.02419274E-01  1.00000000E+00  1.00000000E+00  1.00000000E+00
  1.00000000E+00  1.00000000E+00  1.00000000E+00  1.00000000E+00  1.00000000E+00
  5.34563860E-04  4.13435660E-03  2.12335358E-02  8.25006224E-02  2.38138871E-01
  4.42551547E-01  3.53757422E-01 -4.89867350E-05 -1.19527323E-03 -1.03490714E-02
 -6.48680190E-02 -1.71552477E-01  1.07289568E+00  1.00000000E+00  1.00000000E+00
  1.00000000E+00  3.98072123E-02  2.49002660E-01  8.10479727E-01  1.00000000E+00
  1.00000000E+00  1.00000000E+00  1.00000000E+00  1.00000000E+00  1.00000000E+00
  1.00000000E+00  1.00000000E+00  5.19808943E-04  4.02025621E-03  2.07128267E-02
  8.10105536E-02  2.35962985E-01  4.42653446E-01  3.57064423E-01 -4.42115008E-05
 -1.22591041E-03 -1.05517725E-02 -6.74452633E-02 -1.71198607E-01  1.07329856E+00
  1.00000000E+00  1.00000000E+00  1.00000000E+00  4.11634896E-02  2.57762836E-01
  8.02419274E-01  1.00000000E+00  1.00000000E+00  1.00000000E+00  1.00000000E+00
  1.00000000E+00  1.00000000E+00  1.00000000E+00  1.00000000E+00
Coordinates of each shell                  R   N=         195
  2.09764309E+00 -1.13153701E+00  1.14743591E-33  2.09764309E+00 -1.13153701E+00
  1.14743591E-33  2.09764309E+00 -1.13153701E+00  1.14743591E-33  2.09764309E+00
 -1.13153701E+00  1.14743591E-33  2.09764309E+00 -1.13153701E+00  1.14743591E-33
  2.09764309E+00 -1.13153701E+00  1.14743591E-33  2.09764309E+00 -1.13153701E+00
  1.14743591E-33  2.09764309E+00 -1.13153701E+00  1.14743591E-33  2.09764309E+00
 -1.13153701E+00  1.14743591E-33  2.48712980E+00  6.89365692E-01 -2.05230419E-33
  2.48712980E+00  6.89365692E-01 -2.05230419E-33  2.48712980E+00  6.89365692E-01
 -2.05230419E-33  2.48712980E+00  6.89365692E-01 -2.05230419E-33  2.48712980E+00
  6.89365692E-01 -2.05230419E-33  2.48712980E+00  6.89365692E-01 -2.05230419E-33
  2.48712980E+00  6.89365692E-01 -2.05230419E-33  2.48712980E+00  6.89365692E-01
 -2.05230419E-33  2.48712980E+00  6.89365692E-01 -2.05230419E-33  2.48712980E+00
  6.89365692E-01 -2.05230419E-33  2.48712980E+00  6.89365692E-01 -2.05230419E-33
  2.48712980E+00  6.89365692E-01 -2.05230419E-33  2.48712980E+00  6.89365692E-01
 -2.05230419E-33  2.48712980E+00  6.89365692E-01 -2.05230419E-33 -1.13214793E-17
  1.73021369E+00 -2.90736078E-33 -1.13214793E-17  1.73021369E+00 -2.90736078E-33
 -1.13214793E-17  1.73021369E+00 -2.90736078E-33 -1.13214793E-17  1.73021369E+00
 -2.90736078E-33 -1.13214793E-17  1.73021369E+00 -2.90736078E-33 -1.13214793E-17
  1.73021369E+00 -2.90736078E-33 -1.13214793E-17  1.73021369E+00 -2.90736078E-33
 -1.13214793E-17  1.73021369E+00 -2.90736078E-33 -1.13214793E-17  1.73021369E+00
 -2.90736078E-33 -1.13214793E-17  1.73021369E+00 -2.90736078E-33 -1.13214793E-17
  1.73021369E+00 -2.90736078E-33 -1.13214793E-17  1.73021369E+00 -2.90736078E-33
 -1.13214793E-17  1.73021369E+00 -2.90736078E-33 -1.13214793E-17  1.73021369E+00
 -2.90736078E-33 -1.87256055E+00 -8.78001449E-02  8.20574907E-34 -1.87256055E+00
 -8.78001449E-02  8.20574907E-34 -1.87256055E+00 -8.78001449E-02  8.20574907E-34
 -1.87256055E+00 -8.78001449E-02  8.20574907E-34 -1.87256055E+00 -8.78001449E-02
  8.20574907E-34 -1.87256055E+00 -8.78001449E-02  8.20574907E-34 -1.87256055E+00
 -8.78001449E-02  8.20574907E-34 -1.87256055E+00 -8.78001449E-02  8.20574907E-34
 -1.87256055E+00 -8.78001449E-02  8.20574907E-34 -1.87256055E+00 -8.78001449E-02
  8.20574907E-34 -1.87256055E+00 -8.78001449E-02  8.20574907E-34 -1.87256055E+00
 -8.78001449E-02  8.20574907E-34 -1.87256055E+00 -8.78001449E-02  8.20574907E-34
 -1.87256055E+00 -8.78001449E-02  8.20574907E-34 -1.11084471E+00 -2.20131213E+00
  4.09823244E-33 -1.11084471E+00 -2.20131213E+00  4.09823244E-33 -1.11084471E+00
 -2.20131213E+00  4.09823244E-33 -1.11084471E+00 -2.20131213E+00  4.09823244E-33
 -1.11084471E+00 -2.20131213E+00  4.09823244E-33 -1.11084471E+00 -2.20131213E+00
  4.09823244E-33 -1.11084471E+00 -2.20131213E+00  4.09823244E-33 -1.11084471E+00
 -2.20131213E+00  4.09823244E-33 -1.11084471E+00 -2.20131213E+00  4.09823244E-33
 -1.11084471E+00 -2.20131213E+00  4.09823244E-33 -1.11084471E+00 -2.20131213E+00
  4.09823244E-33 -1.11084471E+00 -2.20131213E+00  4.09823244E-33 -1.11084471E+00
 -2.20131213E+00  4.09823244E-33 -1.11084471E+00 -2.20131213E+00  4.09823244E-33
Num ILSW                                   I              100
ILSW                                       I   N=         100
           0           0           0           0           2           0
           0           0           0           0           0          -1
           5           0           0           0           2           0
           0           0           0           0           1           0
           1           0           0           0           0           0
           0           0      100000           0          -1           0
           0           0           0           0           0           0
           0           0           0           1           1           0
           0 -2000000000           1           0           0           0
           0           0           4          52           0           0
           0           0           0           0           0           0
           0           0           0           5           4           1
           0           0           0           0           0           0
           0           0           0           0           0           0
           0           0           0           0           0           0
           0           0           0           0           0           0
           0           0           0           0
Num RLSW                                   I               52
RLSW                                       R   N=          52
  1.00000000E+00  1.00000000E+00  1.00000000E+00  1.00000000E+00  1.00000000E+00
  0.00000000E+00  0.00000000E+00  1.00000000E+00  0.00000000E+00  0.00000000E+00
  0.00000000E+00  0.00000000E+00  1.00000000E+00  0.00000000E+00  0.00000000E+00
  0.00000000E+00  0.00000000E+00  1.00000000E+00  0.00000000E+00  0.00000000E+00
  0.00000000E+00  0.00000000E+00  1.00000000E+00  0.00000000E+00  0.00000000E+00
  0.00000000E+00  0.00000000E+00  1.00000000E+00  0.00000000E+00  0.00000000E+00
  0.00000000E+00  0.00000000E+00  1.00000000E+00  0.00000000E+00  0.00000000E+00
  0.00000000E+00  0.00000000E+00  0.00000000E+00  1.00000000E+00  1.00000000E+00
  0.00000000E+00  1.00000000E+00  0.00000000E+00  0.00000000E+00  0.00000000E+00
  0.00000000E+00  0.00000000E+00  0.00000000E+00  0.00000000E+00  0.00000000E+00
  0.00000000E+00  0.00000000E+00
MxBond                                     I                2
NBond                                      I   N=           5
           1           2           2           2           1
IBond                                      I   N=          10
           2           0           1           3           2           4
           3           5           4           0
RBond                                      R   N=          10
  1.00000000E+00  0.00000000E+00  1.00000000E+00  1.00000000E+00  1.00000000E+00
  1.00000000E+00  1.00000000E+00  2.00000000E+00  2.00000000E+00  0.00000000E+00
Virial Ratio                               R      2.002135064776282E+00
SCF Energy                                 R     -2.795073979193445E+02
MP2 Energy                                 R     -2.804551906466038E+02
Total Energy                               R     -2.804551906466038E+02
Post-SCF wavefunction norm                 R      1.583148114605382E+00
RMS Force                                  R      3.009676943778824E-03
RMS Density                                R      3.869999820730725E-09
NImag                                      I                0
Job Status                                 I                1
Nuclear derivative order                   I                2
External E-field                           R   N=          35
  0.00000000E+00  0.00000000E+00  0.00000000E+00  0.00000000E+00  0.00000000E+00
  0.00000000E+00  0.00000000E+00  0.00000000E+00  0.00000000E+00  0.00000000E+00
  0.00000000E+00  0.00000000E+00  0.00000000E+00  0.00000000E+00  0.00000000E+00
  0.00000000E+00  0.00000000E+00  0.00000000E+00  0.00000000E+00  0.00000000E+00
  0.00000000E+00  0.00000000E+00  0.00000000E+00  0.00000000E+00  0.00000000E+00
  0.00000000E+00  0.00000000E+00  0.00000000E+00  0.00000000E+00  0.00000000E+00
  0.00000000E+00  0.00000000E+00  0.00000000E+00  0.00000000E+00  0.00000000E+00
IOpCl                                      I                0
IROHF                                      I                0
Alpha Orbital Energies                     R   N=         207
 -2.07184387E+01 -2.06875556E+01 -2.06677580E+01 -1.58250557E+01 -1.64768330E+00
 -1.50651401E+00 -1.29318337E+00 -9.59462589E-01 -8.35980501E-01 -7.60213599E-01
 -7.40917210E-01 -6.37422420E-01 -6.19738970E-01 -6.18824316E-01 -5.03616617E-01
 -4.97122919E-01  3.50309016E-02  6.21006862E-02  9.51424860E-02  1.00430416E-01
  1.19582685E-01  1.22659978E-01  1.49322229E-01  1.52058013E-01  1.77709636E-01
  1.80294667E-01  1.89793955E-01  2.11009656E-01  2.16736728E-01  2.43108736E-01
  2.46461382E-01  2.69181989E-01  3.12752209E-01  3.16701525E-01  3.38046006E-01
  3.44357079E-01  3.47344525E-01  3.92853714E-01  4.48882631E-01  4.89004907E-01
  5.05132062E-01  5.18821335E-01  5.45256770E-01  5.60864739E-01  6.00913936E-01
  6.21290112E-01  6.39888482E-01  6.88658724E-01  7.16922588E-01  7.24435346E-01
  7.44338803E-01  7.63428030E-01  7.67197736E-01  7.95900335E-01  8.06945196E-01
  8.40495391E-01  8.43508349E-01  8.51814685E-01  8.85957748E-01  9.08163434E-01
  9.31283500E-01  9.49155462E-01  9.54059478E-01  1.01857984E+00  1.03203292E+00
  1.06291213E+00  1.06631880E+00  1.09542488E+00  1.14427953E+00  1.15642735E+00
  1.17042229E+00  1.22321242E+00  1.22753572E+00  1.24636223E+00  1.35298290E+00
  1.36088498E+00  1.37261558E+00  1.46867007E+00  1.48561235E+00  1.50494871E+00
  1.54178305E+00  1.59672193E+00  1.59796705E+00  1.60646257E+00  1.62952028E+00
  1.69699457E+00  1.74088819E+00  1.80204583E+00  1.82981158E+00  1.89008985E+00
  1.89671014E+00  1.92820463E+00  1.97977870E+00  1.99002591E+00  2.05057568E+00
  2.12535972E+00  2.13068051E+00  2.16599382E+00  2.18727623E+00  2.24381152E+00
  2.25933448E+00  2.29467921E+00  2.35255011E+00  2.36709038E+00  2.38720536E+00
  2.40427524E+00  2.43458841E+00  2.46883177E+00  2.47976791E+00  2.52915251E+00
  2.53906954E+00  2.55125569E+00  2.56053480E+00  2.61813477E+00  2.63017948E+00
  2.67470150E+00  2.67698682E+00  2.75691492E+00  2.81104148E+00  2.81916565E+00
  2.84100010E+00  2.91932523E+00  2.98744880E+00  3.04991267E+00  3.05202252E+00
  3.11627354E+00  3.11750860E+00  3.17499568E+00  3.21366856E+00  3.30992146E+00
  3.33222667E+00  3.36193073E+00  3.47870538E+00  3.68316572E+00  3.87000293E+00
  3.93053519E+00  4.18489066E+00  4.22426117E+00  4.22720568E+00  4.27850422E+00
  4.37026592E+00  4.50208594E+00  4.52891075E+00  4.56215347E+00  4.59956687E+00
  4.69580319E+00  4.81283234E+00  4.89962993E+00  4.91399485E+00  4.94360567E+00
  4.99795030E+00  5.00514247E+00  5.10859956E+00  5.13714361E+00  5.18008394E+00
  5.25631462E+00  5.25940845E+00  5.31985866E+00  5.34889947E+00  5.35619199E+00
  5.54303024E+00  5.65384797E+00  5.70954964E+00  5.88765420E+00  6.00281043E+00
  6.26569349E+00  6.29716148E+00  6.36241136E+00  6.37797775E+00  6.59900799E+00
  6.66035725E+00  6.66043836E+00  6.69106857E+00  6.72890173E+00  6.79551349E+00
  6.80490992E+00  6.85561667E+00  6.96996131E+00  7.02084459E+00  7.06699049E+00
  7.08134927E+00  7.14174920E+00  7.17755677E+00  7.18004347E+00  7.20497769E+00
  7.24863442E+00  7.24976334E+00  7.28083161E+00  7.35162802E+00  7.39859402E+00
  7.43066216E+00  7.44429540E+00  7.46997896E+00  7.56963458E+00  7.66436497E+00
  7.67046719E+00  7.79746568E+00  7.88558902E+00  7.95575627E+00  8.07278677E+00
  8.30737129E+00  8.50107846E+00  8.65492184E+00  1.36311192E+01  1.47997247E+01
  1.51311395E+01  1.59119250E+01
Alpha MO coefficients                      R   N=       42849
  6.41584546E-05 -2.37268101E-05 -1.09891250E-03  1.39283798E-05 -5.14865249E-05
  4.20351684E-05  0.00000000E+00 -8.94145737E-05 -2.87544113E-04  0.00000000E+00
 -2.55253292E-06 -3.47137654E-04  0.00000000E+00  4.23241678E-05  0.00000000E+00
  0.00000000E+00 -2.53967657E-05  1.18592257E-05  2.27053470E-04  0.00000000E+00
  0.00000000E+00 -4.00074161E-05 -2.07986146E-04  3.12133591E-03 -9.67793809E-05
 -9.72074613E-05  3.54135659E-03  2.47454453E-03  1.02596691E-04 -5.34013060E-05
  0.00000000E+00 -7.29344856E-04  2.86257305E-04  0.00000000E+00 -1.98157958E-03
  1.10862260E-03  0.00000000E+00 -5.37463277E-04  3.90587527E-05  0.00000000E+00
  2.04959029E-05  0.00000000E+00  0.00000000E+00 -8.92419029E-06  4.41876635E-05
 -4.43485937E-04  0.00000000E+00  0.00000000E+00  4.29019121E-04 -6.62320156E-04
 -3.65170215E-04  0.00000000E+00  0.00000000E+00  5.45008898E-04 -7.39707258E-04
  0.00000000E+00  7.40537637E-05 -5.24631784E-05  0.00000000E+00  0.00000000E+00
 -2.78971133E-05  1.08248786E-04  0.00000000E+00  2.08115209E-04 -5.04110374E-05
  0.00000000E+00  0.00000000E+00 -1.70439773E-04  3.00304855E-04  9.76901951E-01
 -9.17437992E-03  4.34097382E-02  5.14504428E-04 -2.20070275E-03  4.54122183E-04
 -2.14357868E-03  0.00000000E+00 -3.26063207E-04  2.24929749E-03  0.00000000E+00
 -2.32360842E-03 -4.87325372E-04  0.00000000E+00 -2.23388305E-04  9.57282677E-05
  0.00000000E+00  7.35606003E-06  0.00000000E+00  0.00000000E+00 -5.42964782E-06
  3.83692512E-05  8.26669362E-04  0.00000000E+00  0.00000000E+00 -4.74669832E-04
 -1.69667524E-04 -1.38935272E-04  0.00000000E+00  0.00000000E+00 -5.48987777E-04
  3.54754120E-04  0.00000000E+00 -6.12991201E-06 -7.91869922E-05  0.00000000E+00
  0.00000000E+00 -8.98178577E-06  4.79451710E-05  0.00000000E+00  9.22476351E-05
  6.89567768E-07  0.00000000E+00  0.00000000E+00 -3.37636765E-04  3.79563238E-04
  1.03215395E-04  4.50724717E-04 -3.23282213E-04 -8.71018106E-04  3.38050087E-04
 -4.39937564E-05 -9.98562251E-05  0.00000000E+00  6.94212017E-04  1.11725295E-03
  0.00000000E+00 -7.81539919E-04 -6.63109942E-04  0.00000000E+00  1.94013730E-04
  2.14593323E-04  0.00000000E+00 -5.22058261E-05  0.00000000E+00  0.00000000E+00
  1.92652720E-05  9.36595538E-05 -4.14388019E-04  0.00000000E+00  0.00000000E+00
  4.32421222E-05  1.07974733E-03  2.98677599E-05  0.00000000E+00  0.00000000E+00
 -3.17084067E-04  2.54193210E-05  0.00000000E+00 -7.85487389E-05 -1.13569392E-04
  0.00000000E+00  0.00000000E+00 -9.60283286E-05  1.05118077E-04  0.00000000E+00
 -1.23868644E-04  4.83713636E-05  0.00000000E+00  0.00000000E+00  1.73876936E-05
  5.19831293E-04 -7.50134302E-04  4.87236515E-05 -7.21060748E-05  2.31023161E-04
 -1.67402997E-04 -2.86100446E-05 -4.16911780E-05  0.00000000E+00  1.68340642E-04
  2.58973452E-04  0.00000000E+00  5.24590142E-04  3.40939381E-04  0.00000000E+00
 -2.22002864E-04 -6.11129930E-05  0.00000000E+00 -1.32371036E-05  0.00000000E+00
  0.00000000E+00  3.10093033E-06  1.59411535E-05 -1.59254540E-06  0.00000000E+00
  0.00000000E+00 -1.64727310E-04  5.02040053E-06 -2.35505211E-05  0.00000000E+00
  0.00000000E+00 -1.74723585E-04 -4.69840948E-05  0.00000000E+00 -5.45328078E-06
 -8.83061906E-06  0.00000000E+00  0.00000000E+00 -2.07985042E-05  9.89204211E-06
  0.00000000E+00  4.05393645E-05  6.11675332E-05  0.00000000E+00  0.00000000E+00
  1.59697624E-04 -1.03099837E-04  3.94789302E-05  6.25311555E-05 -9.90442997E-05
 -2.72701352E-05  1.95673454E-05  1.11949110E-05  0.00000000E+00  2.37635189E-04
  5.50639953E-05  0.00000000E+00  1.21755850E-04  2.41204616E-05  0.00000000E+00
  1.33089268E-05  0.00000000E+00  0.00000000E+00 -1.14675666E-05  1.69070950E-05
  1.94263576E-05  0.00000000E+00  0.00000000E+00 -9.02481856E-05  6.53016946E-05
 -2.45797525E-04  2.49970299E-05 -1.38224677E-05 -5.45717135E-04  1.51823780E-04
  6.69279803E-06  1.38209219E-05  0.00000000E+00  2.82951610E-06 -4.39585039E-05
  0.00000000E+00  1.71881793E-04  1.30278988E-04  0.00000000E+00 -4.47465003E-05
  5.08039014E-05  0.00000000E+00 -1.48253254E-06  0.00000000E+00  0.00000000E+00
 -8.22237339E-06 -1.16414579E-05  2.20042363E-05  0.00000000E+00  0.00000000E+00
  4.73550481E-05  1.09913231E-04  6.24137625E-05  0.00000000E+00  0.00000000E+00
 -2.37293740E-05 -7.31284444E-05  0.00000000E+00  7.51746252E-06  1.04582736E-05
  0.00000000E+00  0.00000000E+00 -7.57485224E-07 -2.50660819E-05  0.00000000E+00
 -1.38888950E-05 -3.67867048E-05  0.00000000E+00  0.00000000E+00 -1.54473596E-06
 -2.09382853E-05  7.78483134E-04  2.14279566E-05 -1.77413272E-05  3.30437575E-04
 -3.58492815E-04  1.73070589E-05  2.68798520E-05  0.00000000E+00 -6.98247638E-05
 -1.52933414E-04  0.00000000E+00  1.17658688E-04 -2.02584256E-04  0.00000000E+00
 -1.61494279E-04  1.37004198E-04  0.00000000E+00 -3.96790436E-06  0.00000000E+00
  0.00000000E+00 -3.11151089E-05 -9.60232393E-06 -5.30322811E-05  0.00000000E+00
  0.00000000E+00  9.09538321E-05  1.22522413E-04 -6.98855497E-05  0.00000000E+00
  0.00000000E+00  5.57349471E-05  3.59366526E-05  0.00000000E+00  3.14539524E-06
  3.04901620E-06  0.00000000E+00  0.00000000E+00 -7.73856846E-06 -3.39668659E-06
  0.00000000E+00  4.86847124E-06 -2.44362588E-05  0.00000000E+00  0.00000000E+00
  9.16668187E-05 -1.61114582E-04  2.39035500E-04  1.37297060E-03 -1.23181152E-04
 -8.48107762E-04  8.47733793E-04  6.78063285E-05 -8.41273284E-05  0.00000000E+00
  5.72525390E-04 -2.07547259E-03  0.00000000E+00  7.60849596E-05  5.32445204E-04
  0.00000000E+00  1.77718482E-04 -3.00914005E-04  0.00000000E+00 -1.27434140E-04
  0.00000000E+00  0.00000000E+00 -2.04955992E-04 -1.58175649E-04 -4.43249233E-04
  0.00000000E+00  0.00000000E+00 -5.66128278E-04 -9.13261701E-04 -2.96237620E-05
  0.00000000E+00  0.00000000E+00  7.79545332E-05  1.22370430E-04  0.00000000E+00
  1.10030185E-05  2.84324380E-05  0.00000000E+00  0.00000000E+00 -1.35903445E-05
 -1.11166586E-05  0.00000000E+00 -1.33365286E-04  1.57444723E-04  0.00000000E+00
  0.00000000E+00 -3.00516591E-04 -3.26958208E-05  9.76636171E-01 -9.88299794E-03
  4.35908052E-02  3.78441668E-03 -8.53437180E-04 -4.51097130E-04  2.13705678E-03
  0.00000000E+00  5.06290196E-04 -2.48713941E-03  0.00000000E+00 -8.97123478E-05
  8.42496289E-04  0.00000000E+00  1.01662586E-04 -5.98208247E-05  0.00000000E+00
 -1.98259885E-04  0.00000000E+00  0.00000000E+00 -7.92973027E-05 -4.73321626E-05
  4.06098294E-04  0.00000000E+00  0.00000000E+00  8.53110545E-04  4.76993047E-04
 -2.01510046E-04  0.00000000E+00  0.00000000E+00 -1.38791774E-04 -3.73069147E-05
  0.00000000E+00 -3.76954884E-06  6.75089282E-05  0.00000000E+00  0.00000000E+00
 -2.55310065E-05  8.95790774E-06  0.00000000E+00 -8.98163271E-05  9.55411940E-05
  0.00000000E+00  0.00000000E+00 -1.66732006E-04  2.06209634E-04  3.74979281E-04
  2.00189428E-03  1.38880816E-03 -1.92911305E-05  5.12088905E-05  2.69107218E-04
  0.00000000E+00  3.77748889E-04  1.02938009E-03  0.00000000E+00 -1.27968833E-04
  2.42072965E-04  0.00000000E+00 -2.39317777E-05  0.00000000E+00  0.00000000E+00
  3.25367869E-05 -2.90825084E-05 -2.16994656E-04  0.00000000E+00  0.00000000E+00
 -3.46674502E-04  4.04574073E-04  9.76834252E-01 -9.18673308E-03  4.34655394E-02
  1.33038197E-04 -1.92452141E-03 -2.04340099E-03 -8.37822523E-04  0.00000000E+00
  2.08195192E-03  7.74649789E-04  0.00000000E+00 -4.04228319E-04  6.49955797E-04
  0.00000000E+00  2.27529668E-04 -2.99090626E-04  0.00000000E+00  3.06577252E-05
  0.00000000E+00  0.00000000E+00 -7.43167871E-05  6.30402413E-05  7.66253933E-04
  0.00000000E+00  0.00000000E+00 -2.08201458E-04  3.50780178E-04 -2.37995577E-04
  0.00000000E+00  0.00000000E+00  3.36190977E-04  3.24937582E-06  0.00000000E+00
 -8.06898876E-05  1.38735632E-06  0.00000000E+00  0.00000000E+00  1.58973449E-05