title                                                                   
Freq      RMP2-FC                                                     Aug-CC-pVTZ         
Number of atoms                            I                5
Info1-9                                    I   N=           9
          33          24           0           0           0         100
           6           2           1
Full Title                                 C   N=           1
title       
Route                                      C   N=           4
#p freq mp2/aug-cc-pvtz density=current         
Charge                                     I                0
Multiplicity                               I                1
Number of electrons                        I               32
Number of alpha electrons                  I               16
Number of beta electrons                   I               16
Number of basis functions                  I              207
Number of independent functions            I              207
Number of point charges in /Mol/           I                0
Number of translation vectors              I                0
Atomic numbers                             I   N=           5
           1           8           8           7           8
Nuclear charges                            R   N=           5
  1.00000000E+00  8.00000000E+00  8.00000000E+00  7.00000000E+00  8.00000000E+00
Current cartesian coordinates              R   N=          15
  1.03106255E+00 -2.14738099E+00  1.80599516E-01  2.41261760E+00 -9.15221550E-01
 -2.05852199E-02  1.02537060E+00  1.39649628E+00  5.59928387E-03 -1.56021664E+00
  1.04097704E+00  7.01640545E-03 -2.20168145E+00 -1.12370702E+00 -1.37283582E-02
Number of symbols in /Mol/                 I                0
Force Field                                I                0
Atom Types                                 C   N=           5
                                                            
Int Atom Types                             I   N=           5
           0           0           0           0           0
MM charges                                 R   N=           5
  0.00000000E+00  0.00000000E+00  0.00000000E+00  0.00000000E+00  0.00000000E+00
Integer atomic weights                     I   N=           5
           1          16          16          14          16
Real atomic weights                        R   N=           5
  1.00782504E+00  1.59949146E+01  1.59949146E+01  1.40030740E+01  1.59949146E+01
Atom fragment info                         I   N=           5
           0           0           0           0           0
Atom residue num                           I   N=           5
           0           0           0           0           0
Nuclear spins                              I   N=           5
           1           0           0           2           0
Nuclear ZEff                               R   N=           5
 -1.00000000E+00 -5.60000000E+00 -5.60000000E+00 -4.55000000E+00 -5.60000000E+00
Nuclear ZNuc                               R   N=           5
  1.00000000E+00  8.00000000E+00  8.00000000E+00  7.00000000E+00  8.00000000E+00
Nuclear QMom                               R   N=           5
  0.00000000E+00  0.00000000E+00  0.00000000E+00  2.04400000E+00  0.00000000E+00
Nuclear GFac                               R   N=           5
  2.79284600E+00  0.00000000E+00  0.00000000E+00  4.03761000E-01  0.00000000E+00
MicOpt                                     I   N=           5
          -1          -1          -1          -1          -1
Number of residues                         I                0
Number of secondary structures             I                0
SymInf integers                            I   N=          26
           1           1           1           1           1           0
           0           0           0           0           0           0
           0           0           0           0           0           0
           0           0           0           0           0           0
           0           0
RotTr to input orientation                 R   N=          12
 -6.62849689E-01  1.00795271E-01  7.41937062E-01  7.48144393E-01  4.92312249E-02
  6.61707076E-01  3.01704737E-02  9.93688382E-01 -1.08042319E-01  2.28454176E+00
 -1.77667673E-01  6.75466069E-01
Number of contracted shells                I               65
Number of primitive shells                 I              119
Pure/Cartesian d shells                    I                0
Pure/Cartesian f shells                    I                0
Highest angular momentum                   I                3
Largest degree of contraction              I                7
Shell types                                I   N=          65
           0           0           0           0           1           1
           1          -2          -2           0           0           0
           0           0           1           1           1           1
          -2          -2          -2          -3          -3           0
           0           0           0           0           1           1
           1           1          -2          -2          -2          -3
          -3           0           0           0           0           0
           1           1           1           1          -2          -2
          -2          -3          -3           0           0           0
           0           0           1           1           1           1
          -2          -2          -2          -3          -3
Number of primitives per shell             I   N=          65
           3           1           1           1           1           1
           1           1           1           7           6           1
           1           1           3           1           1           1
           1           1           1           1           1           7
           6           1           1           1           3           1
           1           1           1           1           1           1
           1           7           6           1           1           1
           3           1           1           1           1           1
           1           1           1           7           6           1
           1           1           3           1           1           1
           1           1           1           1           1
Shell to atom map                          I   N=          65
           1           1           1           1           1           1
           1           1           1           2           2           2
           2           2           2           2           2           2
           2           2           2           2           2           3
           3           3           3           3           3           3
           3           3           3           3           3           3
           3           4           4           4           4           4
           4           4           4           4           4           4
           4           4           4           5           5           5
           5           5           5           5           5           5
           5           5           5           5           5
Primitive exponents                        R   N=         119
  3.38700000E+01  5.09500000E+00  1.15900000E+00  3.25800000E-01  1.02700000E-01
  2.52600000E-02  1.40700000E+00  3.88000000E-01  1.02000000E-01  1.05700000E+00
  2.47000000E-01  1.53300000E+04  2.29900000E+03  5.22400000E+02  1.47300000E+02
  4.75500000E+01  1.67600000E+01  6.20700000E+00  5.22400000E+02  1.47300000E+02
  4.75500000E+01  1.67600000E+01  6.20700000E+00  6.88200000E-01  1.75200000E+00
  2.38400000E-01  7.37600000E-02  3.44600000E+01  7.74900000E+00  2.28000000E+00
  7.15600000E-01  2.14000000E-01  5.97400000E-02  2.31400000E+00  6.45000000E-01
  2.14000000E-01  1.42800000E+00  5.00000000E-01  1.53300000E+04  2.29900000E+03
  5.22400000E+02  1.47300000E+02  4.75500000E+01  1.67600000E+01  6.20700000E+00
  5.22400000E+02  1.47300000E+02  4.75500000E+01  1.67600000E+01  6.20700000E+00
  6.88200000E-01  1.75200000E+00  2.38400000E-01  7.37600000E-02  3.44600000E+01
  7.74900000E+00  2.28000000E+00  7.15600000E-01  2.14000000E-01  5.97400000E-02
  2.31400000E+00  6.45000000E-01  2.14000000E-01  1.42800000E+00  5.00000000E-01
  1.14200000E+04  1.71200000E+03  3.89300000E+02  1.10000000E+02  3.55700000E+01
  1.25400000E+01  4.64400000E+00  3.89300000E+02  1.10000000E+02  3.55700000E+01
  1.25400000E+01  4.64400000E+00  5.11800000E-01  1.29300000E+00  1.78700000E-01
  5.76000000E-02  2.66300000E+01  5.94800000E+00  1.74200000E+00  5.55000000E-01
  1.72500000E-01  4.91000000E-02  1.65400000E+00  4.69000000E-01  1.51000000E-01
  1.09300000E+00  3.64000000E-01  1.53300000E+04  2.29900000E+03  5.22400000E+02
  1.47300000E+02  4.75500000E+01  1.67600000E+01  6.20700000E+00  5.22400000E+02
  1.47300000E+02  4.75500000E+01  1.67600000E+01  6.20700000E+00  6.88200000E-01
  1.75200000E+00  2.38400000E-01  7.37600000E-02  3.44600000E+01  7.74900000E+00
  2.28000000E+00  7.15600000E-01  2.14000000E-01  5.97400000E-02  2.31400000E+00
  6.45000000E-01  2.14000000E-01  1.42800000E+00  5.00000000E-01
Contraction coefficients                   R   N=         119
  2.54948632E-02  1.90362766E-01  8.52162022E-01  1.00000000E+00  1.00000000E+00
  1.00000000E+00  1.00000000E+00  1.00000000E+00  1.00000000E+00  1.00000000E+00
  1.00000000E+00  5.19808943E-04  4.02025621E-03  2.07128267E-02  8.10105536E-02
  2.35962985E-01  4.42653446E-01  3.57064423E-01 -4.42115008E-05 -1.22591041E-03
 -1.05517725E-02 -6.74452633E-02 -1.71198607E-01  1.07329856E+00  1.00000000E+00
  1.00000000E+00  1.00000000E+00  4.11634896E-02  2.57762836E-01  8.02419274E-01
  1.00000000E+00  1.00000000E+00  1.00000000E+00  1.00000000E+00  1.00000000E+00
  1.00000000E+00  1.00000000E+00  1.00000000E+00  5.19808943E-04  4.02025621E-03
  2.07128267E-02  8.10105536E-02  2.35962985E-01  4.42653446E-01  3.57064423E-01
 -4.42115008E-05 -1.22591041E-03 -1.05517725E-02 -6.74452633E-02 -1.71198607E-01
  1.07329856E+00  1.00000000E+00  1.00000000E+00  1.00000000E+00  4.11634896E-02
  2.57762836E-01  8.02419274E-01  1.00000000E+00  1.00000000E+00  1.00000000E+00
  1.00000000E+00  1.00000000E+00  1.00000000E+00  1.00000000E+00  1.00000000E+00
  5.34563860E-04  4.13435660E-03  2.12335358E-02  8.25006224E-02  2.38138871E-01
  4.42551547E-01  3.53757422E-01 -4.89867350E-05 -1.19527323E-03 -1.03490714E-02
 -6.48680190E-02 -1.71552477E-01  1.07289568E+00  1.00000000E+00  1.00000000E+00
  1.00000000E+00  3.98072123E-02  2.49002660E-01  8.10479727E-01  1.00000000E+00
  1.00000000E+00  1.00000000E+00  1.00000000E+00  1.00000000E+00  1.00000000E+00
  1.00000000E+00  1.00000000E+00  5.19808943E-04  4.02025621E-03  2.07128267E-02
  8.10105536E-02  2.35962985E-01  4.42653446E-01  3.57064423E-01 -4.42115008E-05
 -1.22591041E-03 -1.05517725E-02 -6.74452633E-02 -1.71198607E-01  1.07329856E+00
  1.00000000E+00  1.00000000E+00  1.00000000E+00  4.11634896E-02  2.57762836E-01
  8.02419274E-01  1.00000000E+00  1.00000000E+00  1.00000000E+00  1.00000000E+00
  1.00000000E+00  1.00000000E+00  1.00000000E+00  1.00000000E+00
Coordinates of each shell                  R   N=         195
  1.03106255E+00 -2.14738099E+00  1.80599516E-01  1.03106255E+00 -2.14738099E+00
  1.80599516E-01  1.03106255E+00 -2.14738099E+00  1.80599516E-01  1.03106255E+00
 -2.14738099E+00  1.80599516E-01  1.03106255E+00 -2.14738099E+00  1.80599516E-01
  1.03106255E+00 -2.14738099E+00  1.80599516E-01  1.03106255E+00 -2.14738099E+00
  1.80599516E-01  1.03106255E+00 -2.14738099E+00  1.80599516E-01  1.03106255E+00
 -2.14738099E+00  1.80599516E-01  2.41261760E+00 -9.15221550E-01 -2.05852199E-02
  2.41261760E+00 -9.15221550E-01 -2.05852199E-02  2.41261760E+00 -9.15221550E-01
 -2.05852199E-02  2.41261760E+00 -9.15221550E-01 -2.05852199E-02  2.41261760E+00
 -9.15221550E-01 -2.05852199E-02  2.41261760E+00 -9.15221550E-01 -2.05852199E-02
  2.41261760E+00 -9.15221550E-01 -2.05852199E-02  2.41261760E+00 -9.15221550E-01
 -2.05852199E-02  2.41261760E+00 -9.15221550E-01 -2.05852199E-02  2.41261760E+00
 -9.15221550E-01 -2.05852199E-02  2.41261760E+00 -9.15221550E-01 -2.05852199E-02
  2.41261760E+00 -9.15221550E-01 -2.05852199E-02  2.41261760E+00 -9.15221550E-01
 -2.05852199E-02  2.41261760E+00 -9.15221550E-01 -2.05852199E-02  1.02537060E+00
  1.39649628E+00  5.59928387E-03  1.02537060E+00  1.39649628E+00  5.59928387E-03
  1.02537060E+00  1.39649628E+00  5.59928387E-03  1.02537060E+00  1.39649628E+00
  5.59928387E-03  1.02537060E+00  1.39649628E+00  5.59928387E-03  1.02537060E+00
  1.39649628E+00  5.59928387E-03  1.02537060E+00  1.39649628E+00  5.59928387E-03
  1.02537060E+00  1.39649628E+00  5.59928387E-03  1.02537060E+00  1.39649628E+00
  5.59928387E-03  1.02537060E+00  1.39649628E+00  5.59928387E-03  1.02537060E+00
  1.39649628E+00  5.59928387E-03  1.02537060E+00  1.39649628E+00  5.59928387E-03
  1.02537060E+00  1.39649628E+00  5.59928387E-03  1.02537060E+00  1.39649628E+00
  5.59928387E-03 -1.56021664E+00  1.04097704E+00  7.01640545E-03 -1.56021664E+00
  1.04097704E+00  7.01640545E-03 -1.56021664E+00  1.04097704E+00  7.01640545E-03
 -1.56021664E+00  1.04097704E+00  7.01640545E-03 -1.56021664E+00  1.04097704E+00
  7.01640545E-03 -1.56021664E+00  1.04097704E+00  7.01640545E-03 -1.56021664E+00
  1.04097704E+00  7.01640545E-03 -1.56021664E+00  1.04097704E+00  7.01640545E-03
 -1.56021664E+00  1.04097704E+00  7.01640545E-03 -1.56021664E+00  1.04097704E+00
  7.01640545E-03 -1.56021664E+00  1.04097704E+00  7.01640545E-03 -1.56021664E+00
  1.04097704E+00  7.01640545E-03 -1.56021664E+00  1.04097704E+00  7.01640545E-03
 -1.56021664E+00  1.04097704E+00  7.01640545E-03 -2.20168145E+00 -1.12370702E+00
 -1.37283582E-02 -2.20168145E+00 -1.12370702E+00 -1.37283582E-02 -2.20168145E+00
 -1.12370702E+00 -1.37283582E-02 -2.20168145E+00 -1.12370702E+00 -1.37283582E-02
 -2.20168145E+00 -1.12370702E+00 -1.37283582E-02 -2.20168145E+00 -1.12370702E+00
 -1.37283582E-02 -2.20168145E+00 -1.12370702E+00 -1.37283582E-02 -2.20168145E+00
 -1.12370702E+00 -1.37283582E-02 -2.20168145E+00 -1.12370702E+00 -1.37283582E-02
 -2.20168145E+00 -1.12370702E+00 -1.37283582E-02 -2.20168145E+00 -1.12370702E+00
 -1.37283582E-02 -2.20168145E+00 -1.12370702E+00 -1.37283582E-02 -2.20168145E+00
 -1.12370702E+00 -1.37283582E-02 -2.20168145E+00 -1.12370702E+00 -1.37283582E-02
Num ILSW                                   I              100
ILSW                                       I   N=         100
           0           0           0           0           2           0
           0           0           0           0           0          -1
           5           0           0           0           2           0
           0           0           0           0           1           0
           1           0           0           0           0           0
           0           0      100000           0          -1           0
           0           0           0           0           0           0
           0           0           0           1           1           0
           0 -2000000000           1           0           0           0
           0           0           4          52           0           0
           0           0           0           0           0           0
           0           0           0           5           4           1
           0           0           0           0           0           0
           0           0           0           0           0           0
           0           0           0           0           0           0
           0           0           0           0           0           0
           0           0           0           0
Num RLSW                                   I               52
RLSW                                       R   N=          52
  1.00000000E+00  1.00000000E+00  1.00000000E+00  1.00000000E+00  1.00000000E+00
  0.00000000E+00  0.00000000E+00  1.00000000E+00  0.00000000E+00  0.00000000E+00
  0.00000000E+00  0.00000000E+00  1.00000000E+00  0.00000000E+00  0.00000000E+00
  0.00000000E+00  0.00000000E+00  1.00000000E+00  0.00000000E+00  0.00000000E+00
  0.00000000E+00  0.00000000E+00  1.00000000E+00  0.00000000E+00  0.00000000E+00
  0.00000000E+00  0.00000000E+00  1.00000000E+00  0.00000000E+00  0.00000000E+00
  0.00000000E+00  0.00000000E+00  1.00000000E+00  0.00000000E+00  0.00000000E+00
  0.00000000E+00  0.00000000E+00  0.00000000E+00  1.00000000E+00  1.00000000E+00
  0.00000000E+00  1.00000000E+00  0.00000000E+00  0.00000000E+00  0.00000000E+00
  0.00000000E+00  0.00000000E+00  0.00000000E+00  0.00000000E+00  0.00000000E+00
  0.00000000E+00  0.00000000E+00
MxBond                                     I                2
NBond                                      I   N=           5
           1           2           2           2           1
IBond                                      I   N=          10
           2           0           1           3           2           4
           3           5           4           0
RBond                                      R   N=          10
  1.00000000E+00  0.00000000E+00  1.00000000E+00  1.00000000E+00  1.00000000E+00
  1.00000000E+00  1.00000000E+00  2.00000000E+00  2.00000000E+00  0.00000000E+00
Virial Ratio                               R      2.002229034879794E+00
SCF Energy                                 R     -2.795063592726021E+02
MP2 Energy                                 R     -2.804551059390256E+02
Total Energy                               R     -2.804551059390256E+02
Post-SCF wavefunction norm                 R      1.583718237103656E+00
RMS Force                                  R      7.347561720523942E-04
RMS Density                                R      6.768346161515541E-09
NImag                                      I                0
Job Status                                 I                1
Nuclear derivative order                   I                2
External E-field                           R   N=          35
  0.00000000E+00  0.00000000E+00  0.00000000E+00  0.00000000E+00  0.00000000E+00
  0.00000000E+00  0.00000000E+00  0.00000000E+00  0.00000000E+00  0.00000000E+00
  0.00000000E+00  0.00000000E+00  0.00000000E+00  0.00000000E+00  0.00000000E+00
  0.00000000E+00  0.00000000E+00  0.00000000E+00  0.00000000E+00  0.00000000E+00
  0.00000000E+00  0.00000000E+00  0.00000000E+00  0.00000000E+00  0.00000000E+00
  0.00000000E+00  0.00000000E+00  0.00000000E+00  0.00000000E+00  0.00000000E+00
  0.00000000E+00  0.00000000E+00  0.00000000E+00  0.00000000E+00  0.00000000E+00
IOpCl                                      I                0
IROHF                                      I                0
Alpha Orbital Energies                     R   N=         207
 -2.07196943E+01 -2.06869450E+01 -2.06684934E+01 -1.58257476E+01 -1.64399710E+00
 -1.50509339E+00 -1.29371106E+00 -9.60195312E-01 -8.34072583E-01 -7.58739103E-01
 -7.40086842E-01 -6.38211898E-01 -6.19240692E-01 -6.16701278E-01 -5.04502952E-01
 -4.97608608E-01  3.49778882E-02  6.04546463E-02  9.51179190E-02  1.00408082E-01
  1.19128934E-01  1.22647103E-01  1.49831195E-01  1.51894871E-01  1.76801802E-01
  1.81071394E-01  1.89187446E-01  2.11765304E-01  2.16884260E-01  2.42319880E-01
  2.46250984E-01  2.68936754E-01  3.03752121E-01  3.25324424E-01  3.38319410E-01
  3.43935309E-01  3.47131577E-01  3.92676664E-01  4.44506975E-01  4.86435724E-01
  5.08608870E-01  5.18555293E-01  5.44630826E-01  5.61595651E-01  5.98721855E-01
  6.20415967E-01  6.37773586E-01  6.89852021E-01  7.12759139E-01  7.27948591E-01
  7.43281268E-01  7.60852795E-01  7.70634879E-01  7.92023873E-01  8.06224915E-01
  8.40290676E-01  8.44386242E-01  8.53641947E-01  8.88316892E-01  9.07096390E-01
  9.28980934E-01  9.52326143E-01  9.54076307E-01  1.01749510E+00  1.03441844E+00
  1.05782516E+00  1.06466258E+00  1.09659897E+00  1.14084445E+00  1.15559268E+00
  1.17146124E+00  1.21576827E+00  1.23288393E+00  1.24664617E+00  1.34840515E+00
  1.36106756E+00  1.36957293E+00  1.46157104E+00  1.49601195E+00  1.50687845E+00
  1.53679987E+00  1.58081249E+00  1.60092461E+00  1.61714299E+00  1.62990632E+00
  1.69476737E+00  1.73834311E+00  1.80228923E+00  1.82919584E+00  1.89007844E+00
  1.89417710E+00  1.92930548E+00  1.97632720E+00  1.99416918E+00  2.05070869E+00
  2.12285110E+00  2.12882192E+00  2.16861412E+00  2.18981666E+00  2.24181101E+00
  2.26177555E+00  2.29788369E+00  2.35067760E+00  2.36502717E+00  2.38833914E+00
  2.40079642E+00  2.43179493E+00  2.46571212E+00  2.48197396E+00  2.52766981E+00
  2.53352263E+00  2.54918549E+00  2.56485840E+00  2.61591033E+00  2.63039798E+00
  2.66352794E+00  2.67375876E+00  2.75376199E+00  2.80892282E+00  2.82010053E+00
  2.84518418E+00  2.91825552E+00  2.98317232E+00  3.04359927E+00  3.05184774E+00
  3.11160322E+00  3.12288976E+00  3.16895896E+00  3.21064994E+00  3.30373148E+00
  3.33575590E+00  3.36034824E+00  3.47571563E+00  3.67827975E+00  3.86312475E+00
  3.93051321E+00  4.16617281E+00  4.22027263E+00  4.24099662E+00  4.27703474E+00
  4.37391798E+00  4.49972996E+00  4.52107096E+00  4.55476863E+00  4.60480290E+00
  4.69403812E+00  4.80981776E+00  4.89559222E+00  4.91891844E+00  4.94421144E+00
  4.99592164E+00  5.00743127E+00  5.10556748E+00  5.13176350E+00  5.18308723E+00
  5.24976571E+00  5.26010108E+00  5.31578812E+00  5.34319794E+00  5.35673586E+00
  5.54773797E+00  5.64463862E+00  5.70475068E+00  5.88902532E+00  5.99657980E+00
  6.26780348E+00  6.29655835E+00  6.35843032E+00  6.37614521E+00  6.60060031E+00
  6.65247211E+00  6.66873099E+00  6.69194303E+00  6.72571291E+00  6.78191528E+00
  6.81200209E+00  6.85621714E+00  6.96595950E+00  7.01676647E+00  7.06859033E+00
  7.08489338E+00  7.13969515E+00  7.16906053E+00  7.17997594E+00  7.20257250E+00
  7.24534056E+00  7.24882704E+00  7.27432785E+00  7.34917403E+00  7.39414016E+00
  7.42614136E+00  7.44362105E+00  7.46124089E+00  7.56032204E+00  7.66050843E+00
  7.66529206E+00  7.79727667E+00  7.88409216E+00  7.95149845E+00  8.05292036E+00
  8.30573975E+00  8.49645871E+00  8.65049686E+00  1.36186517E+01  1.47637840E+01
  1.50893731E+01  1.57547141E+01
Alpha MO coefficients                      R   N=       42849
  6.49366192E-05 -6.79227695E-05 -1.04647788E-03  1.18914573E-05 -1.63697933E-05
  6.39694487E-05  5.12412380E-06 -2.41614555E-04 -1.97107325E-04 -1.40389274E-05
 -2.06165210E-04 -2.68352364E-04 -2.31876782E-05  4.37658369E-05  7.53467394E-06
 -5.48194015E-06  5.80448655E-06  2.74618578E-05  2.20212243E-04  4.12711821E-05
 -1.93229208E-05 -1.94388416E-04 -2.44922229E-05  3.08964951E-03 -9.83333290E-05
 -9.86002300E-05  3.54545324E-03  2.44769996E-03  5.11713976E-05 -1.03792273E-04
 -2.96510776E-06 -4.18687579E-04  6.62110519E-04  2.29845467E-05 -9.69541818E-04
  2.06297687E-03  9.23834968E-05 -4.03998169E-04  3.49012925E-04  3.24315451E-05
  2.01648902E-05  1.97806866E-06  8.58354328E-07  3.90938471E-05  2.17030219E-05
 -4.41945092E-04 -1.79314600E-05  4.21934774E-06 -5.01327323E-04 -6.05723918E-04
 -3.66708321E-04 -1.70064970E-05  1.00719288E-05 -5.24658661E-04 -7.36176058E-04
  4.63249020E-07  2.88259421E-05 -8.58225526E-05 -2.26304552E-06 -2.12096887E-06
  1.11617943E-04 -8.93103434E-06 -1.63055326E-05  1.37443447E-04 -1.64331640E-04
 -2.89274204E-06 -1.17018314E-05  3.36630692E-04  6.20382313E-05  9.76903672E-01
 -9.17343780E-03  4.34074301E-02  4.86514588E-04 -2.20265210E-03 -9.08152433E-04
 -1.99743672E-03 -1.38514643E-05  1.07589141E-03  2.00591304E-03  1.04072199E-05
 -2.13929225E-03  9.88999360E-04  3.14355428E-05 -1.19521658E-04  2.06533220E-04
  1.63476894E-06  7.12752631E-06  3.06886750E-07 -5.76177390E-07  3.46857654E-05
  1.62134864E-05  8.27688779E-04  3.88615314E-06 -8.43151620E-06 -3.05627788E-04
  4.01324783E-04 -1.39675997E-04 -8.24968984E-06 -6.11310613E-06  1.78843098E-04
  6.23743066E-04  6.02367320E-08 -5.21334081E-05 -6.00746271E-05 -4.22127303E-07
 -5.57085798E-07  4.85548443E-05 -7.09724284E-06 -5.29721171E-06  7.49004943E-05
 -5.43763820E-05 -1.29715975E-06 -2.79584990E-06  4.67690705E-04  1.95273621E-04
  1.04502993E-04  4.58369791E-04 -3.23449714E-04 -8.20035419E-04  3.77245193E-04
 -9.47338642E-05 -5.45478860E-05  9.17728112E-07  1.21913258E-03  4.81886488E-04
 -1.91703971E-06 -1.01192375E-03 -8.19188202E-05 -7.69229279E-06  2.85575005E-04
  5.37583072E-05  3.50479864E-07 -5.24242602E-05  4.47779974E-07 -4.13254086E-07
  9.44933336E-05  9.18031275E-06 -4.16112946E-04 -7.06064016E-06 -2.48641779E-06
  1.04504962E-03  2.87760255E-04  2.44650931E-05 -6.31655244E-06 -4.04716619E-06
 -6.42834472E-05  3.13414764E-04  4.74057657E-07 -1.30663612E-04 -4.52850251E-05
 -1.05834059E-06  1.41419413E-06  1.31821065E-04  5.67913317E-05  2.89530660E-06
 -7.25049530E-05  1.11880043E-04 -4.21784381E-06 -3.91994025E-06  4.90382760E-04
 -1.83233824E-04 -7.00987301E-04  4.83151699E-05 -7.00132037E-05  1.84670877E-04
 -2.06924535E-04 -4.74990053E-05 -1.61654983E-05  1.13695797E-06  2.85071760E-04
  1.03383109E-04 -6.43617382E-06  6.11007286E-04 -4.84234601E-05  3.99193594E-05
 -2.16632906E-04  7.32158640E-05  4.14304318E-06 -1.31933977E-05 -1.02019735E-06
  3.68924707E-07  1.56618253E-05  9.89705330E-07 -1.21368105E-06  3.82894283E-06
 -7.54697432E-07 -3.97574431E-05  1.61896932E-04 -1.65813787E-05  3.76656564E-05
 -1.28327090E-05 -8.88071851E-05  1.58340556E-04  3.10247946E-06 -1.07857320E-05
 -3.44139147E-06 -2.82393612E-06  2.19465940E-06  1.53647219E-05  1.69974095E-05
 -1.08069838E-05  7.06238281E-05  2.39949126E-05  1.01228019E-05 -6.31435055E-06
 -1.48158924E-04 -1.12728287E-04  4.05764653E-05  7.71048678E-05 -1.62872873E-04
 -3.16145313E-05  2.00276680E-05 -1.62853260E-06 -9.07404172E-07  2.25121655E-04
 -8.03926579E-05 -5.14594725E-06  1.04713089E-04 -5.81055516E-05  1.19618321E-05
  1.38382837E-05 -5.32465751E-06  2.95506286E-06  8.69820158E-06  1.82054344E-05
  2.87136515E-05  2.35787108E-06  1.97962126E-06  1.74012165E-05  1.12051191E-04
 -2.64058222E-04  2.64020194E-05 -1.55840002E-05 -5.54287164E-04  1.85183841E-04
  1.38218876E-05  6.87823639E-06  1.15158284E-06 -2.38544099E-05 -3.42390282E-05
 -8.48310722E-06  2.48814913E-04 -1.52910259E-05 -1.64471486E-05 -1.35667279E-05
  6.07774801E-05 -3.77235000E-06 -1.29783301E-06  7.55823701E-07 -1.03584372E-06
 -1.29587851E-05  4.56209895E-06  2.06784243E-05 -5.94330945E-08  6.72718425E-06
  1.14053053E-04 -1.59522212E-05  6.08617252E-05 -1.79479361E-06  9.52383046E-06
 -9.79973868E-05  2.43517695E-06  1.86717672E-06  1.24822152E-05  3.49088223E-06
 -1.66823506E-06 -3.74732299E-07 -2.30526754E-05  8.88831219E-06 -4.48514283E-06
 -3.32036043E-05 -1.89088385E-05  9.57741077E-06 -4.84137196E-06 -1.34349318E-05
  1.17778735E-05  7.29374353E-04  2.25775243E-05 -1.86157858E-05  2.86168763E-04
 -4.01929024E-04  2.94377228E-05  1.18149919E-05  5.98104285E-07 -1.44313823E-04
 -8.21944075E-05 -2.85981601E-06  1.38317875E-05 -2.59722643E-04  1.17530772E-05
 -3.78590666E-05  2.08402695E-04  6.79462451E-06 -4.03065800E-06  7.71017044E-07
 -2.39452991E-07 -1.81561384E-05  2.50981861E-05 -5.08532421E-05 -3.70548411E-06
  2.27912896E-06  1.40210499E-04 -3.86751189E-05 -6.36538426E-05 -9.72229046E-06
 -2.90341494E-06  3.05470796E-05 -3.32736809E-05  9.89676710E-07  4.63985469E-06
  8.32818191E-07  2.82199027E-07 -1.50832046E-07  4.37059858E-07  8.18928571E-06
 -3.45086618E-06 -1.29940049E-05 -2.21946896E-05  3.19076649E-06  3.98802363E-06
 -1.75893974E-04 -4.07915532E-05  2.37406652E-04  1.35938326E-03 -1.47689367E-04
 -6.42865333E-04  9.13855511E-04  8.99575103E-06 -9.46108368E-05 -2.17744890E-07
 -7.71731421E-04 -2.01868211E-03 -2.10576616E-05  3.97506106E-04  3.19465641E-04
 -1.65002167E-05 -3.07907545E-05 -3.57786282E-04 -3.32697713E-06 -1.27651875E-04
  1.86752562E-06  3.89859905E-06 -2.12356597E-04  1.47069403E-04 -4.62564622E-04
 -3.56808662E-06  1.67367677E-05 -1.05792942E-03  3.02681212E-04 -4.39889800E-05
 -7.24534927E-06  1.31391212E-06  1.27801437E-04 -2.55038279E-05  7.18425988E-07
  2.86655378E-05  2.48653816E-05  5.34340970E-07  9.13299707E-07  4.30044827E-06
  2.46971228E-05  6.13159346E-06 -1.56187917E-05  2.07606293E-04  2.98483377E-06
 -1.92167881E-06  7.01274891E-05  3.08974132E-04  9.76646150E-01 -9.88676119E-03
  4.35755238E-02  3.67206253E-03 -9.00442322E-04  8.98282504E-04  1.98470406E-03
  2.80158865E-05 -1.06963694E-03 -2.32451740E-03 -3.07408187E-05  4.26333900E-04
  6.81645268E-04  3.08078839E-05  4.51596959E-05 -1.14598280E-04 -8.51303732E-07
 -1.94281601E-04 -1.31923711E-06  4.82752812E-06 -6.37115337E-05  5.76990704E-05
  4.09504058E-04 -5.69281603E-06 -1.66373184E-05  7.19423638E-04 -6.74662396E-04
 -2.06218878E-04  1.67668336E-05  7.49470104E-06 -7.30013221E-05  1.16039422E-04
  3.16292363E-06  3.78335872E-05  5.94242538E-05 -7.31026925E-07 -6.33074104E-07
  1.95124078E-05  2.45487567E-05 -4.10221776E-06 -1.72656803E-05  1.27140236E-04
  1.19578080E-05 -5.25329781E-06  2.47178864E-04  9.01763568E-05  3.76563186E-04
  1.97811692E-03  1.33051984E-03 -1.52073981E-05  2.00231294E-04  1.86355790E-04
 -2.46844612E-05  9.01169219E-04  5.91305353E-04 -1.33937098E-04  4.94216964E-05
  2.50014690E-04 -4.91235684E-05 -2.29847644E-05  3.48579355E-06 -1.08309575E-06
 -1.72369878E-05 -3.96377449E-05 -2.08169974E-04 -4.84190110E-05 -5.25592576E-05
  2.80837549E-04  4.43406680E-04  9.76835183E-01 -9.18468722E-03  4.34645323E-02
  1.50120293E-04 -1.88966009E-03 -2.13384813E-03  5.39722440E-04  1.86981584E-04
  2.12736125E-03 -6.15739936E-04 -1.71326430E-04  3.57842262E-05  7.43487360E-04
 -7.38357407E-05 -4.17578168E-07 -3.65554108E-04  1.45894179E-06  3.12916404E-05
 -1.23164525E-06 -2.99074479E-06  3.79418223E-05  8.99201649E-05  7.54899967E-04
  8.11571064E-05  6.05332102E-05  2.75922611E-04  3.08870575E-04 -2.40166656E-04
 -1.02650816E-06  3.21839142E-05  1.12852937E-04 -3.15374551E-04  5.98878429E-06
 -6.32961412E-05  4.89798198E-05 -4.07925429E-06 -3.44780641E-07 -4.62090087E-05