 Entering Gaussian System, Link 0=g16
 Input=hoono_a2_112p6021.gjf
 Output=hoono_a2_112p6021.log
 Initial command:
 /sw/contrib/gaussian/g16/B01/g16/l1.exe "/scr/Gau-70344.inp" -scrdir="/scr/"
 Entering Link 1 = /sw/contrib/gaussian/g16/B01/g16/l1.exe PID=     70345.
  
 Copyright (c) 1988-2017, Gaussian, Inc.  All Rights Reserved.
  
 This is part of the Gaussian(R) 16 program.  It is based on
 the Gaussian(R) 09 system (copyright 2009, Gaussian, Inc.),
 the Gaussian(R) 03 system (copyright 2003, Gaussian, Inc.),
 the Gaussian(R) 98 system (copyright 1998, Gaussian, Inc.),
 the Gaussian(R) 94 system (copyright 1995, Gaussian, Inc.),
 the Gaussian 92(TM) system (copyright 1992, Gaussian, Inc.),
 the Gaussian 90(TM) system (copyright 1990, Gaussian, Inc.),
 the Gaussian 88(TM) system (copyright 1988, Gaussian, Inc.),
 the Gaussian 86(TM) system (copyright 1986, Carnegie Mellon
 University), and the Gaussian 82(TM) system (copyright 1983,
 Carnegie Mellon University). Gaussian is a federally registered
 trademark of Gaussian, Inc.
  
 This software contains proprietary and confidential information,
 including trade secrets, belonging to Gaussian, Inc.
  
 This software is provided under written license and may be
 used, copied, transmitted, or stored only in accord with that
 written license.
  
 The following legend is applicable only to US Government
 contracts under FAR:
  
                    RESTRICTED RIGHTS LEGEND
  
 Use, reproduction and disclosure by the US Government is
 subject to restrictions as set forth in subparagraphs (a)
 and (c) of the Commercial Computer Software - Restricted
 Rights clause in FAR 52.227-19.
  
 Gaussian, Inc.
 340 Quinnipiac St., Bldg. 40, Wallingford CT 06492
  
  
 ---------------------------------------------------------------
 Warning -- This program may not be used in any manner that
 competes with the business of Gaussian, Inc. or will provide
 assistance to any competitor of Gaussian, Inc.  The licensee
 of this program is prohibited from giving any competitor of
 Gaussian, Inc. access to this program.  By using this program,
 the user acknowledges that Gaussian, Inc. is engaged in the
 business of creating and licensing software in the field of
 computational chemistry and represents and warrants to the
 licensee that it is not a competitor of Gaussian, Inc. and that
 it will not use this program in any manner prohibited above.
 ---------------------------------------------------------------
  

 Cite this work as:
 Gaussian 16, Revision B.01,
 M. J. Frisch, G. W. Trucks, H. B. Schlegel, G. E. Scuseria, 
 M. A. Robb, J. R. Cheeseman, G. Scalmani, V. Barone, 
 G. A. Petersson, H. Nakatsuji, X. Li, M. Caricato, A. V. Marenich, 
 J. Bloino, B. G. Janesko, R. Gomperts, B. Mennucci, H. P. Hratchian, 
 J. V. Ortiz, A. F. Izmaylov, J. L. Sonnenberg, D. Williams-Young, 
 F. Ding, F. Lipparini, F. Egidi, J. Goings, B. Peng, A. Petrone, 
 T. Henderson, D. Ranasinghe, V. G. Zakrzewski, J. Gao, N. Rega, 
 G. Zheng, W. Liang, M. Hada, M. Ehara, K. Toyota, R. Fukuda, 
 J. Hasegawa, M. Ishida, T. Nakajima, Y. Honda, O. Kitao, H. Nakai, 
 T. Vreven, K. Throssell, J. A. Montgomery, Jr., J. E. Peralta, 
 F. Ogliaro, M. J. Bearpark, J. J. Heyd, E. N. Brothers, K. N. Kudin, 
 V. N. Staroverov, T. A. Keith, R. Kobayashi, J. Normand, 
 K. Raghavachari, A. P. Rendell, J. C. Burant, S. S. Iyengar, 
 J. Tomasi, M. Cossi, J. M. Millam, M. Klene, C. Adamo, R. Cammi, 
 J. W. Ochterski, R. L. Martin, K. Morokuma, O. Farkas, 
 J. B. Foresman, and D. J. Fox, Gaussian, Inc., Wallingford CT, 2016.
 
 ******************************************
 Gaussian 16:  ES64L-G16RevB.01 20-Dec-2017
                 6-Mar-2022 
 ******************************************
 %nproc=28
 Will use up to   28 processors via shared memory.
 %mem=120GB
 %chk=hoono_a2_112p6021.chk
 ---------------------------------------
 #p freq mp2/aug-cc-pvtz density=current
 ---------------------------------------
 1/10=4,30=1,38=1/1,3;
 2/12=2,17=6,18=5,40=1/2;
 3/5=16,6=1,7=10,11=9,25=1,30=1,71=2,140=1/1,2,3;
 4//1;
 5/5=2,38=5,98=1/2;
 8/6=3,8=1,10=1,19=11,30=-1/1;
 9/15=3,16=-3/6;
 11/6=1,8=1,15=11,17=12,24=-1,27=1,28=-2,29=300,32=6,42=3/1,2,10;
 10/6=2,21=1/2;
 8/6=4,8=1,10=1,19=11,30=-1/11,4;
 10/5=1,20=4/2;
 11/12=2,14=11,16=1,17=2,28=-2,42=3,76=2/2,10,12;
 6/7=2,8=2,9=2,10=2,22=-1/1;
 7/8=1,10=1,12=2,25=1,44=2/1,2,3,16;
 1/10=4,30=1/3;
 99//99;
 Leave Link    1 at Sun Mar  6 19:31:59 2022, MaxMem= 16106127360 cpu:               2.3 elap:               0.1
 (Enter /sw/contrib/gaussian/g16/B01/g16/l101.exe)
 -----
 title
 -----
 Symbolic Z-matrix:
 Charge =  0 Multiplicity = 1
 H
 O                    1    r1
 O                    2    r2       1    a1
 N                    3    r3       2    a2       1    d1       0
 O                    4    r4       3    a3       2    d2       0
       Variables:
  r1                    0.98538                  
  r2                    1.42674                  
  r3                    1.38111                  
  r4                    1.19479                  
  a1                  100.63551                  
  a2                  112.60211                  
  a3                  114.33392                  
  d1                    0.                       
  d2                    0.                       
 
 ITRead=  0  0  0  0  0
 MicOpt= -1 -1 -1 -1 -1
 NAtoms=      5 NQM=        5 NQMF=       0 NMMI=      0 NMMIF=      0
                NMic=       0 NMicF=      0.
                    Isotopes and Nuclear Properties:
 (Nuclear quadrupole moments (NQMom) in fm**2, nuclear magnetic moments (NMagM)
  in nuclear magnetons)

  Atom         1           2           3           4           5
 IAtWgt=           1          16          16          14          16
 AtmWgt=   1.0078250  15.9949146  15.9949146  14.0030740  15.9949146
 NucSpn=           1           0           0           2           0
 AtZEff=  -0.0000000  -0.0000000  -0.0000000  -0.0000000  -0.0000000
 NQMom=    0.0000000   0.0000000   0.0000000   2.0440000   0.0000000
 NMagM=    2.7928460   0.0000000   0.0000000   0.4037610   0.0000000
 AtZNuc=   1.0000000   8.0000000   8.0000000   7.0000000   8.0000000
 Leave Link  101 at Sun Mar  6 19:31:59 2022, MaxMem= 16106127360 cpu:               2.8 elap:               0.1
 (Enter /sw/contrib/gaussian/g16/B01/g16/l103.exe)

 GradGradGradGradGradGradGradGradGradGradGradGradGradGradGradGradGradGrad
 Berny optimization.
 Initialization pass.
                       ----------------------------
                       !    Initial Parameters    !
                       ! (Angstroms and Degrees)  !
 ----------------------                            ----------------------
 !      Name          Value   Derivative information (Atomic Units)     !
 ------------------------------------------------------------------------
 !       r1          0.9854   calculate D2E/DX2 analytically            !
 !       r2          1.4267   calculate D2E/DX2 analytically            !
 !       r3          1.3811   calculate D2E/DX2 analytically            !
 !       r4          1.1948   calculate D2E/DX2 analytically            !
 !       a1        100.6355   calculate D2E/DX2 analytically            !
 !       a2        112.6021   calculate D2E/DX2 analytically            !
 !       a3        114.3339   calculate D2E/DX2 analytically            !
 !       d1          0.0      calculate D2E/DX2 analytically            !
 !       d2          0.0      calculate D2E/DX2 analytically            !
 ------------------------------------------------------------------------
 Trust Radius=3.00D-01 FncErr=1.00D-07 GrdErr=1.00D-07 EigMax=2.50D+02 EigMin=1.00D-04
 Number of steps in this run=      2 maximum allowed number of steps=      2.
 GradGradGradGradGradGradGradGradGradGradGradGradGradGradGradGradGradGrad

 Leave Link  103 at Sun Mar  6 19:31:59 2022, MaxMem= 16106127360 cpu:               0.4 elap:               0.0
 (Enter /sw/contrib/gaussian/g16/B01/g16/l202.exe)
                          Input orientation:                          
 ---------------------------------------------------------------------
 Center     Atomic      Atomic             Coordinates (Angstroms)
 Number     Number       Type             X           Y           Z
 ---------------------------------------------------------------------
      1          1           0        0.000000    0.000000    0.000000
      2          8           0        0.000000    0.000000    0.985377
      3          8           0        1.402227    0.000000    1.248696
      4          7           0        2.159229    0.000000    0.093531
      5          8           0        1.518529    0.000000   -0.914944
 ---------------------------------------------------------------------
                    Distance matrix (angstroms):
                    1          2          3          4          5
     1  H    0.000000
     2  O    0.985377   0.000000
     3  O    1.877627   1.426737   0.000000
     4  N    2.161254   2.336164   1.381108   0.000000
     5  O    1.772865   2.432519   2.166763   1.194788   0.000000
 Stoichiometry    HNO3
 Framework group  CS[SG(HNO3)]
 Deg. of freedom     7
 Full point group                 CS      NOp   2
 Largest Abelian subgroup         CS      NOp   2
 Largest concise Abelian subgroup C1      NOp   1
                         Standard orientation:                         
 ---------------------------------------------------------------------
 Center     Atomic      Atomic             Coordinates (Angstroms)
 Number     Number       Type             X           Y           Z
 ---------------------------------------------------------------------
      1          1           0        1.097874   -0.602824    0.000000
      2          8           0        1.311684    0.359077   -0.000000
      3          8           0       -0.000000    0.920381   -0.000000
      4          7           0       -0.989618   -0.043006    0.000000
      5          8           0       -0.583003   -1.166475    0.000000
 ---------------------------------------------------------------------
 Rotational constants (GHZ):          21.2516983           8.1714735           5.9020724
 Leave Link  202 at Sun Mar  6 19:31:59 2022, MaxMem= 16106127360 cpu:               0.4 elap:               0.0
 (Enter /sw/contrib/gaussian/g16/B01/g16/l301.exe)
 Standard basis: Aug-CC-pVTZ (5D, 7F)
 Ernie: Thresh=  0.10000D-02 Tol=  0.10000D-05 Strict=F.
 Ernie:  12 primitive shells out of 131 were deleted.
 There are   166 symmetry adapted cartesian basis functions of A'  symmetry.
 There are    79 symmetry adapted cartesian basis functions of A"  symmetry.
 There are   136 symmetry adapted basis functions of A'  symmetry.
 There are    71 symmetry adapted basis functions of A"  symmetry.
   207 basis functions,   315 primitive gaussians,   245 cartesian basis functions
    16 alpha electrons       16 beta electrons
       nuclear repulsion energy       122.8876448482 Hartrees.
 IExCor=    0 DFT=F Ex=HF Corr=None ExCW=0 ScaHFX=  1.000000
 ScaDFX=  1.000000  1.000000  1.000000  1.000000 ScalE2=  1.000000  1.000000
 IRadAn=      5 IRanWt=     -1 IRanGd=            0 ICorTp=0 IEmpDi=  4
 NAtoms=    5 NActive=    5 NUniq=    5 SFac= 1.00D+00 NAtFMM=   60 NAOKFM=F Big=F
 Integral buffers will be    131072 words long.
 Raffenetti 1 integral format.
 Two-electron integral symmetry is turned on.
 Leave Link  301 at Sun Mar  6 19:32:00 2022, MaxMem= 16106127360 cpu:               1.4 elap:               0.1
 (Enter /sw/contrib/gaussian/g16/B01/g16/l302.exe)
 NPDir=0 NMtPBC=     1 NCelOv=     1 NCel=       1 NClECP=     1 NCelD=      1
         NCelK=      1 NCelE2=     1 NClLst=     1 CellRange=     0.0.
 One-electron integrals computed using PRISM.
 One-electron integral symmetry used in STVInt
 NBasis=   207 RedAO= T EigKep=  1.31D-04  NBF=   136    71
 NBsUse=   207 1.00D-06 EigRej= -1.00D+00 NBFU=   136    71
 Leave Link  302 at Sun Mar  6 19:32:00 2022, MaxMem= 16106127360 cpu:               4.3 elap:               0.2
 (Enter /sw/contrib/gaussian/g16/B01/g16/l303.exe)
 DipDrv:  MaxL=1.
 Leave Link  303 at Sun Mar  6 19:32:00 2022, MaxMem= 16106127360 cpu:               0.9 elap:               0.1
 (Enter /sw/contrib/gaussian/g16/B01/g16/l401.exe)
 ExpMin= 2.53D-02 ExpMax= 1.53D+04 ExpMxC= 5.22D+02 IAcc=3 IRadAn=         5 AccDes= 0.00D+00
 Harris functional with IExCor=  205 and IRadAn=       5 diagonalized for initial guess.
 HarFok:  IExCor=  205 AccDes= 0.00D+00 IRadAn=         5 IDoV= 1 UseB2=F ITyADJ=14
 ICtDFT=  3500011 ScaDFX=  1.000000  1.000000  1.000000  1.000000
 FoFCou: FMM=F IPFlag=           0 FMFlag=      100000 FMFlg1=           0
         NFxFlg=           0 DoJE=T BraDBF=F KetDBF=T FulRan=T
         wScrn=  0.000000 ICntrl=       500 IOpCl=  0 I1Cent=   200000004 NGrid=           0
         NMat0=    1 NMatS0=      1 NMatT0=    0 NMatD0=    1 NMtDS0=    0 NMtDT0=    0
 Petite list used in FoFCou.
 Harris En= -279.645111710864    
 JPrj=0 DoOrth=F DoCkMO=F.
 Initial guess orbital symmetries:
       Occupied  (A') (A') (A') (A') (A') (A') (A') (A') (A') (A')
                 (A") (A') (A') (A") (A") (A')
       Virtual   (A") (A') (A') (A') (A') (A") (A') (A') (A') (A')
                 (A") (A') (A") (A') (A') (A") (A') (A') (A") (A')
                 (A') (A') (A') (A') (A") (A') (A') (A') (A") (A')
                 (A') (A") (A") (A') (A') (A") (A') (A") (A') (A")
                 (A') (A") (A') (A") (A') (A') (A') (A") (A') (A')
                 (A') (A") (A') (A") (A') (A") (A') (A') (A') (A")
                 (A') (A') (A") (A') (A') (A') (A") (A") (A') (A')
                 (A") (A') (A") (A") (A') (A') (A") (A') (A') (A')
                 (A") (A') (A') (A") (A') (A") (A') (A") (A') (A')
                 (A') (A") (A') (A") (A') (A') (A") (A') (A") (A')
                 (A") (A') (A') (A") (A") (A') (A') (A') (A") (A')
                 (A") (A') (A') (A') (A") (A') (A') (A') (A") (A')
                 (A") (A') (A') (A") (A") (A") (A") (A') (A') (A')
                 (A') (A') (A') (A") (A') (A") (A') (A") (A') (A')
                 (A") (A") (A') (A') (A') (A") (A') (A') (A') (A")
                 (A') (A') (A') (A") (A') (A") (A") (A') (A') (A")
                 (A') (A") (A") (A') (A") (A') (A") (A') (A") (A')
                 (A") (A") (A") (A') (A") (A') (A') (A') (A") (A')
                 (A') (A') (A') (A') (A') (A') (A') (A') (A') (A')
                 (A')
 The electronic state of the initial guess is 1-A'.
 Leave Link  401 at Sun Mar  6 19:32:00 2022, MaxMem= 16106127360 cpu:               6.5 elap:               0.3
 (Enter /sw/contrib/gaussian/g16/B01/g16/l502.exe)
 Keep R1 ints in memory in symmetry-blocked form, NReq=348887737.
 FoFCou: FMM=F IPFlag=           0 FMFlag=           0 FMFlg1=           0
         NFxFlg=           0 DoJE=F BraDBF=F KetDBF=F FulRan=T
         wScrn=  0.000000 ICntrl=       600 IOpCl=  0 I1Cent=           0 NGrid=           0
         NMat0=    1 NMatS0=  21528 NMatT0=    0 NMatD0=    1 NMtDS0=    0 NMtDT0=    0
 Petite list used in FoFCou.
 Closed shell SCF:
 Using DIIS extrapolation, IDIIS=  1040.
 NGot= 16106127360 LenX= 15988850015 LenY= 15988789549
 Requested convergence on RMS density matrix=1.00D-08 within 128 cycles.
 Requested convergence on MAX density matrix=1.00D-06.
 Requested convergence on             energy=1.00D-06.
 No special actions if energy rises.

 Cycle   1  Pass 1  IDiag  1:
 E= -279.363946307360    
 DIIS: error= 2.74D-02 at cycle   1 NSaved=   1.
 NSaved= 1 IEnMin= 1 EnMin= -279.363946307360     IErMin= 1 ErrMin= 2.74D-02
 ErrMax= 2.74D-02  0.00D+00 EMaxC= 1.00D-01 BMatC= 4.51D-01 BMatP= 4.51D-01
 IDIUse=3 WtCom= 7.26D-01 WtEn= 2.74D-01
 Coeff-Com:  0.100D+01
 Coeff-En:   0.100D+01
 Coeff:      0.100D+01
 Gap=     0.498 Goal=   None    Shift=    0.000
 GapD=    0.498 DampG=2.000 DampE=0.500 DampFc=1.0000 IDamp=-1.
 RMSDP=1.68D-03 MaxDP=8.79D-02              OVMax= 1.23D-01

 Cycle   2  Pass 1  IDiag  1:
 E= -279.446044327956     Delta-E=       -0.082098020596 Rises=F Damp=F
 DIIS: error= 1.95D-02 at cycle   2 NSaved=   2.
 NSaved= 2 IEnMin= 2 EnMin= -279.446044327956     IErMin= 2 ErrMin= 1.95D-02
 ErrMax= 1.95D-02  0.00D+00 EMaxC= 1.00D-01 BMatC= 8.61D-02 BMatP= 4.51D-01
 IDIUse=3 WtCom= 8.05D-01 WtEn= 1.95D-01
 Coeff-Com:  0.219D+00 0.781D+00
 Coeff-En:   0.774D-01 0.923D+00
 Coeff:      0.191D+00 0.809D+00
 Gap=     0.562 Goal=   None    Shift=    0.000
 RMSDP=9.68D-04 MaxDP=3.70D-02 DE=-8.21D-02 OVMax= 9.13D-02

 Cycle   3  Pass 1  IDiag  1:
 E= -279.483868670420     Delta-E=       -0.037824342463 Rises=F Damp=F
 DIIS: error= 1.11D-02 at cycle   3 NSaved=   3.
 NSaved= 3 IEnMin= 3 EnMin= -279.483868670420     IErMin= 3 ErrMin= 1.11D-02
 ErrMax= 1.11D-02  0.00D+00 EMaxC= 1.00D-01 BMatC= 3.09D-02 BMatP= 8.61D-02
 IDIUse=3 WtCom= 8.89D-01 WtEn= 1.11D-01
 Coeff-Com: -0.347D-01 0.364D+00 0.670D+00
 Coeff-En:   0.000D+00 0.218D+00 0.782D+00
 Coeff:     -0.308D-01 0.348D+00 0.683D+00
 Gap=     0.542 Goal=   None    Shift=    0.000
 RMSDP=4.10D-04 MaxDP=1.58D-02 DE=-3.78D-02 OVMax= 3.88D-02

 Cycle   4  Pass 1  IDiag  1:
 E= -279.505015182564     Delta-E=       -0.021146512145 Rises=F Damp=F
 DIIS: error= 1.65D-03 at cycle   4 NSaved=   4.
 NSaved= 4 IEnMin= 4 EnMin= -279.505015182564     IErMin= 4 ErrMin= 1.65D-03
 ErrMax= 1.65D-03  0.00D+00 EMaxC= 1.00D-01 BMatC= 6.02D-04 BMatP= 3.09D-02
 IDIUse=3 WtCom= 9.83D-01 WtEn= 1.65D-02
 Coeff-Com: -0.120D-01 0.473D-01 0.154D+00 0.810D+00
 Coeff-En:   0.000D+00 0.000D+00 0.000D+00 0.100D+01
 Coeff:     -0.118D-01 0.465D-01 0.152D+00 0.813D+00
 Gap=     0.528 Goal=   None    Shift=    0.000
 RMSDP=9.88D-05 MaxDP=2.29D-03 DE=-2.11D-02 OVMax= 1.17D-02

 Cycle   5  Pass 1  IDiag  1:
 E= -279.505827251802     Delta-E=       -0.000812069237 Rises=F Damp=F
 DIIS: error= 1.10D-03 at cycle   5 NSaved=   5.
 NSaved= 5 IEnMin= 5 EnMin= -279.505827251802     IErMin= 5 ErrMin= 1.10D-03
 ErrMax= 1.10D-03  0.00D+00 EMaxC= 1.00D-01 BMatC= 1.03D-04 BMatP= 6.02D-04
 IDIUse=3 WtCom= 9.89D-01 WtEn= 1.10D-02
 Coeff-Com:  0.539D-02-0.660D-01-0.111D+00 0.586D-01 0.111D+01
 Coeff-En:   0.000D+00 0.000D+00 0.000D+00 0.000D+00 0.100D+01
 Coeff:      0.533D-02-0.653D-01-0.110D+00 0.580D-01 0.111D+01
 Gap=     0.532 Goal=   None    Shift=    0.000
 RMSDP=7.98D-05 MaxDP=2.11D-03 DE=-8.12D-04 OVMax= 1.29D-02

 Cycle   6  Pass 1  IDiag  1:
 E= -279.506189943738     Delta-E=       -0.000362691937 Rises=F Damp=F
 DIIS: error= 3.33D-04 at cycle   6 NSaved=   6.
 NSaved= 6 IEnMin= 6 EnMin= -279.506189943738     IErMin= 6 ErrMin= 3.33D-04
 ErrMax= 3.33D-04  0.00D+00 EMaxC= 1.00D-01 BMatC= 2.40D-05 BMatP= 1.03D-04
 IDIUse=3 WtCom= 9.97D-01 WtEn= 3.33D-03
 Coeff-Com:  0.188D-02-0.708D-02-0.179D-01-0.182D+00 0.119D-01 0.119D+01
 Coeff-En:   0.000D+00 0.000D+00 0.000D+00 0.000D+00 0.000D+00 0.100D+01
 Coeff:      0.188D-02-0.706D-02-0.178D-01-0.182D+00 0.119D-01 0.119D+01
 Gap=     0.532 Goal=   None    Shift=    0.000
 RMSDP=4.66D-05 MaxDP=1.07D-03 DE=-3.63D-04 OVMax= 6.09D-03

 Cycle   7  Pass 1  IDiag  1:
 E= -279.506275484602     Delta-E=       -0.000085540864 Rises=F Damp=F
 DIIS: error= 1.26D-04 at cycle   7 NSaved=   7.
 NSaved= 7 IEnMin= 7 EnMin= -279.506275484602     IErMin= 7 ErrMin= 1.26D-04
 ErrMax= 1.26D-04  0.00D+00 EMaxC= 1.00D-01 BMatC= 3.53D-06 BMatP= 2.40D-05
 IDIUse=3 WtCom= 9.99D-01 WtEn= 1.26D-03
 Coeff-Com: -0.109D-02 0.114D-01 0.249D-01 0.168D-01-0.180D+00-0.153D+00
 Coeff-Com:  0.128D+01
 Coeff-En:   0.000D+00 0.000D+00 0.000D+00 0.000D+00 0.000D+00 0.000D+00
 Coeff-En:   0.100D+01
 Coeff:     -0.109D-02 0.114D-01 0.249D-01 0.168D-01-0.180D+00-0.153D+00
 Coeff:      0.128D+01
 Gap=     0.533 Goal=   None    Shift=    0.000
 RMSDP=1.74D-05 MaxDP=5.10D-04 DE=-8.55D-05 OVMax= 2.32D-03

 Cycle   8  Pass 1  IDiag  1:
 E= -279.506287362523     Delta-E=       -0.000011877921 Rises=F Damp=F
 DIIS: error= 4.68D-05 at cycle   8 NSaved=   8.
 NSaved= 8 IEnMin= 8 EnMin= -279.506287362523     IErMin= 8 ErrMin= 4.68D-05
 ErrMax= 4.68D-05  0.00D+00 EMaxC= 1.00D-01 BMatC= 5.92D-07 BMatP= 3.53D-06
 IDIUse=1 WtCom= 1.00D+00 WtEn= 0.00D+00
 Coeff-Com: -0.557D-03 0.407D-02 0.966D-02 0.247D-01-0.565D-01-0.192D+00
 Coeff-Com:  0.354D+00 0.857D+00
 Coeff:     -0.557D-03 0.407D-02 0.966D-02 0.247D-01-0.565D-01-0.192D+00
 Coeff:      0.354D+00 0.857D+00
 Gap=     0.533 Goal=   None    Shift=    0.000
 RMSDP=5.39D-06 MaxDP=1.52D-04 DE=-1.19D-05 OVMax= 6.40D-04

 Cycle   9  Pass 1  IDiag  1:
 E= -279.506288717352     Delta-E=       -0.000001354830 Rises=F Damp=F
 DIIS: error= 2.40D-05 at cycle   9 NSaved=   9.
 NSaved= 9 IEnMin= 9 EnMin= -279.506288717352     IErMin= 9 ErrMin= 2.40D-05
 ErrMax= 2.40D-05  0.00D+00 EMaxC= 1.00D-01 BMatC= 1.15D-07 BMatP= 5.92D-07
 IDIUse=1 WtCom= 1.00D+00 WtEn= 0.00D+00
 Coeff-Com:  0.239D-03-0.254D-02-0.529D-02-0.558D-02 0.466D-01 0.487D-01
 Coeff-Com: -0.339D+00 0.342D-01 0.122D+01
 Coeff:      0.239D-03-0.254D-02-0.529D-02-0.558D-02 0.466D-01 0.487D-01
 Coeff:     -0.339D+00 0.342D-01 0.122D+01
 Gap=     0.533 Goal=   None    Shift=    0.000
 RMSDP=2.45D-06 MaxDP=6.63D-05 DE=-1.35D-06 OVMax= 2.57D-04

 Cycle  10  Pass 1  IDiag  1:
 E= -279.506288977157     Delta-E=       -0.000000259804 Rises=F Damp=F
 DIIS: error= 5.55D-06 at cycle  10 NSaved=  10.
 NSaved=10 IEnMin=10 EnMin= -279.506288977157     IErMin=10 ErrMin= 5.55D-06
 ErrMax= 5.55D-06  0.00D+00 EMaxC= 1.00D-01 BMatC= 8.13D-09 BMatP= 1.15D-07
 IDIUse=1 WtCom= 1.00D+00 WtEn= 0.00D+00
 Coeff-Com: -0.367D-04 0.475D-03 0.115D-02-0.186D-02-0.106D-01 0.569D-02
 Coeff-Com:  0.703D-01-0.540D-01-0.427D+00 0.142D+01
 Coeff:     -0.367D-04 0.475D-03 0.115D-02-0.186D-02-0.106D-01 0.569D-02
 Coeff:      0.703D-01-0.540D-01-0.427D+00 0.142D+01
 Gap=     0.533 Goal=   None    Shift=    0.000
 RMSDP=6.93D-07 MaxDP=2.49D-05 DE=-2.60D-07 OVMax= 7.50D-05

 Cycle  11  Pass 1  IDiag  1:
 E= -279.506289001564     Delta-E=       -0.000000024407 Rises=F Damp=F
 DIIS: error= 2.19D-06 at cycle  11 NSaved=  11.
 NSaved=11 IEnMin=11 EnMin= -279.506289001564     IErMin=11 ErrMin= 2.19D-06
 ErrMax= 2.19D-06  0.00D+00 EMaxC= 1.00D-01 BMatC= 8.49D-10 BMatP= 8.13D-09
 IDIUse=1 WtCom= 1.00D+00 WtEn= 0.00D+00
 Coeff-Com: -0.170D-04 0.175D-03 0.368D-03 0.861D-03-0.239D-02-0.714D-02
 Coeff-Com:  0.205D-01 0.183D-01-0.582D-01-0.302D+00 0.133D+01
 Coeff:     -0.170D-04 0.175D-03 0.368D-03 0.861D-03-0.239D-02-0.714D-02
 Coeff:      0.205D-01 0.183D-01-0.582D-01-0.302D+00 0.133D+01
 Gap=     0.533 Goal=   None    Shift=    0.000
 RMSDP=2.42D-07 MaxDP=9.00D-06 DE=-2.44D-08 OVMax= 2.84D-05

 Cycle  12  Pass 1  IDiag  1:
 E= -279.506289004574     Delta-E=       -0.000000003010 Rises=F Damp=F
 DIIS: error= 7.55D-07 at cycle  12 NSaved=  12.
 NSaved=12 IEnMin=12 EnMin= -279.506289004574     IErMin=12 ErrMin= 7.55D-07
 ErrMax= 7.55D-07  0.00D+00 EMaxC= 1.00D-01 BMatC= 9.19D-11 BMatP= 8.49D-10
 IDIUse=1 WtCom= 1.00D+00 WtEn= 0.00D+00
 Coeff-Com:  0.241D-05-0.438D-04-0.962D-04 0.160D-03 0.115D-02-0.946D-03
 Coeff-Com: -0.722D-02 0.721D-02 0.420D-01-0.126D+00-0.163D+00 0.125D+01
 Coeff:      0.241D-05-0.438D-04-0.962D-04 0.160D-03 0.115D-02-0.946D-03
 Coeff:     -0.722D-02 0.721D-02 0.420D-01-0.126D+00-0.163D+00 0.125D+01
 Gap=     0.533 Goal=   None    Shift=    0.000
 RMSDP=8.65D-08 MaxDP=2.84D-06 DE=-3.01D-09 OVMax= 1.01D-05

 Cycle  13  Pass 1  IDiag  1:
 E= -279.506289004895     Delta-E=       -0.000000000321 Rises=F Damp=F
 DIIS: error= 1.66D-07 at cycle  13 NSaved=  13.
 NSaved=13 IEnMin=13 EnMin= -279.506289004895     IErMin=13 ErrMin= 1.66D-07
 ErrMax= 1.66D-07  0.00D+00 EMaxC= 1.00D-01 BMatC= 7.86D-12 BMatP= 9.19D-11
 IDIUse=1 WtCom= 1.00D+00 WtEn= 0.00D+00
 Coeff-Com:  0.138D-05-0.133D-04-0.199D-04-0.123D-03 0.671D-04 0.950D-03
 Coeff-Com: -0.123D-02-0.251D-02-0.131D-02 0.547D-01-0.131D+00-0.154D+00
 Coeff-Com:  0.123D+01
 Coeff:      0.138D-05-0.133D-04-0.199D-04-0.123D-03 0.671D-04 0.950D-03
 Coeff:     -0.123D-02-0.251D-02-0.131D-02 0.547D-01-0.131D+00-0.154D+00
 Coeff:      0.123D+01
 Gap=     0.533 Goal=   None    Shift=    0.000
 RMSDP=2.34D-08 MaxDP=6.99D-07 DE=-3.21D-10 OVMax= 2.14D-06

 Cycle  14  Pass 1  IDiag  1:
 E= -279.506289004918     Delta-E=       -0.000000000022 Rises=F Damp=F
 DIIS: error= 4.13D-08 at cycle  14 NSaved=  14.
 NSaved=14 IEnMin=14 EnMin= -279.506289004918     IErMin=14 ErrMin= 4.13D-08
 ErrMax= 4.13D-08  0.00D+00 EMaxC= 1.00D-01 BMatC= 5.11D-13 BMatP= 7.86D-12
 IDIUse=1 WtCom= 1.00D+00 WtEn= 0.00D+00
 Coeff-Com: -0.292D-06 0.442D-05 0.894D-05-0.518D-05-0.115D-03 0.715D-04
 Coeff-Com:  0.648D-03-0.359D-03-0.368D-02 0.863D-02 0.167D-01-0.891D-01
 Coeff-Com: -0.295D-01 0.110D+01
 Coeff:     -0.292D-06 0.442D-05 0.894D-05-0.518D-05-0.115D-03 0.715D-04
 Coeff:      0.648D-03-0.359D-03-0.368D-02 0.863D-02 0.167D-01-0.891D-01
 Coeff:     -0.295D-01 0.110D+01
 Gap=     0.533 Goal=   None    Shift=    0.000
 RMSDP=4.54D-09 MaxDP=1.14D-07 DE=-2.22D-11 OVMax= 4.57D-07

 SCF Done:  E(RHF) =  -279.506289005     A.U. after   14 cycles
            NFock= 14  Conv=0.45D-08     -V/T= 2.0022
 KE= 2.788890723858D+02 PE=-9.066408373221D+02 EE= 2.253578310832D+02
 Leave Link  502 at Sun Mar  6 19:32:04 2022, MaxMem= 16106127360 cpu:              59.4 elap:               3.5
 (Enter /sw/contrib/gaussian/g16/B01/g16/l801.exe)
 ExpMin= 2.53D-02 ExpMax= 1.53D+04 ExpMxC= 5.22D+02 IAcc=3 IRadAn=         5 AccDes= 0.00D+00
 HarFok:  IExCor=  205 AccDes= 0.00D+00 IRadAn=         5 IDoV=-2 UseB2=F ITyADJ=14
 ICtDFT= 12500011 ScaDFX=  1.000000  1.000000  1.000000  1.000000
 Largest valence mixing into a core orbital is  2.07D-04
 Largest core mixing into a valence orbital is  3.11D-05
 Range of M.O.s used for correlation:     5   207
 NBasis=   207 NAE=    16 NBE=    16 NFC=     4 NFV=     0
 NROrb=    203 NOA=    12 NOB=    12 NVA=   191 NVB=   191

 **** Warning!!: The largest alpha MO coefficient is  0.16492390D+02

 Leave Link  801 at Sun Mar  6 19:32:04 2022, MaxMem= 16106127360 cpu:               2.0 elap:               0.1
 (Enter /sw/contrib/gaussian/g16/B01/g16/l906.exe)
 Frozen-core derivative calculation, NFC=   4 NFV=   0.
 FulOut=F Deriv=T AODrv=T NAtomX=     5
   MMem=           0  MDisk=          12 MDiskD=          12
  W3Min=      811440 MinDsk=     2425030 NBas6D=         245
 NBas2D=       30762    NTT=       30135    LW2=     7400000
    MDV= 16105571504 MDiskM=      328644 NBas2p=       30759
 Disk-based method using ON**2 memory for 12 occupieds at a time.
 Permanent disk used for amplitudes=    11516536 words.
 Estimated scratch disk usage=   321863743 words.
 IMap=   1   2   3   4   5   6   7   8   9  10  11  12  13  14  15  16
 Actual    scratch disk usage=   310892607 words.
 JobTyp=1 Pass  1:  I=   5 to  16 NPSUse= 28 ParTrn=T ParDer=T DoDerP=T.
 (rs|ai) integrals will be sorted in core.
 Spin components of T(2) and E(2):
     alpha-alpha T2 =       0.3480512670D-01 E2=     -0.1245901979D+00
     alpha-beta  T2 =       0.1844674978D+00 E2=     -0.6997452898D+00
     beta-beta   T2 =       0.3480512670D-01 E2=     -0.1245901979D+00
 The integrals were generated   1 times.
 ANorm=    0.1119856130D+01
 E2 =    -0.9489256856D+00 EUMP2 =    -0.28045521469052D+03
 Leave Link  906 at Sun Mar  6 19:33:38 2022, MaxMem= 16106127360 cpu:            2634.8 elap:              94.4
 (Enter /sw/contrib/gaussian/g16/B01/g16/l1101.exe)
 Using compressed Sx but separate Hx and Fx, NAtomX=     5.
 Will process      6 centers per pass.
 Leave Link 1101 at Sun Mar  6 19:33:38 2022, MaxMem= 16106127360 cpu:               7.1 elap:               0.3
 (Enter /sw/contrib/gaussian/g16/B01/g16/l1102.exe)
 Leave Link 1102 at Sun Mar  6 19:33:39 2022, MaxMem= 16106127360 cpu:               0.5 elap:               0.0
 (Enter /sw/contrib/gaussian/g16/B01/g16/l1110.exe)
 Forming Gx(P) for the SCF density, NAtomX=     5.
 Integral derivatives from FoFJK, PRISM(SPDF).
 Do as many integral derivatives as possible in FoFJK.
 G2DrvN: MDV=   16106126844.
 G2DrvN: will do     6 centers at a time, making    1 passes.
 Calling FoFCou, ICntrl=  3107 FMM=F I1Cent=   0 AccDes= 0.00D+00.
 FoFJK:  IHMeth= 1 ICntrl=    3107 DoSepK=F KAlg= 0 I1Cent=           0 FoldK=F
 IRaf=         0 NMat=       1 IRICut=       1 DoRegI=T DoRafI=F ISym2E= 1 IDoP0=0 IntGTp=1.
 FoFCou: FMM=F IPFlag=           0 FMFlag=      100000 FMFlg1=           0
         NFxFlg=           0 DoJE=F BraDBF=F KetDBF=F FulRan=T
         wScrn=  0.000000 ICntrl=      3107 IOpCl=  0 I1Cent=           0 NGrid=           0
         NMat0=    1 NMatS0=      1 NMatT0=    0 NMatD0=    1 NMtDS0=    0 NMtDT0=    0
 Petite list used in FoFCou.
 End of G2Drv F.D. properties file   721 does not exist.
 End of G2Drv F.D. properties file   722 does not exist.
 End of G2Drv F.D. properties file   788 does not exist.
 Leave Link 1110 at Sun Mar  6 19:33:41 2022, MaxMem= 16106127360 cpu:              82.0 elap:               3.0
 (Enter /sw/contrib/gaussian/g16/B01/g16/l1002.exe)
 Minotr:  Closed shell wavefunction.
          IDoAtm=11111
          Frozen-core window.
          Direct CPHF calculation.
          Differentiating once with respect to electric field.
                with respect to dipole field.
          Differentiating once with respect to nuclear coordinates.
          Requested convergence is 1.0D-08 RMS, and 1.0D-07 maximum.
          Secondary convergence is 1.0D-12 RMS, and 1.0D-12 maximum.
          NewPWx=T KeepS1=T KeepF1=T KeepIn=T MapXYZ=F SortEE=F KeepMc=T.
 Keep R1 ints in memory in symmetry-blocked form, NReq=348888983.
 FoFCou: FMM=F IPFlag=           0 FMFlag=           0 FMFlg1=           0
         NFxFlg=           0 DoJE=F BraDBF=F KetDBF=F FulRan=T
         wScrn=  0.000000 ICntrl=       600 IOpCl=  0 I1Cent=           0 NGrid=           0
         NMat0=    1 NMatS0=  21528 NMatT0=    0 NMatD0=    1 NMtDS0=    0 NMtDT0=    0
 Petite list used in FoFCou.
          MDV=   16106127360 using IRadAn=       1.
          Solving linear equations simultaneously, MaxMat=       0.
          There are    18 degrees of freedom in the 1st order CPHF.  IDoFFX=6 NUNeed=    18.
     15 vectors produced by pass  0 Test12= 1.70D-14 5.56D-09 XBig12= 7.91D+00 1.22D+00.
 AX will form    15 AO Fock derivatives at one time.
     15 vectors produced by pass  1 Test12= 1.70D-14 5.56D-09 XBig12= 1.35D+00 2.28D-01.
     15 vectors produced by pass  2 Test12= 1.70D-14 5.56D-09 XBig12= 6.59D-02 5.71D-02.
     15 vectors produced by pass  3 Test12= 1.70D-14 5.56D-09 XBig12= 1.89D-03 1.04D-02.
     15 vectors produced by pass  4 Test12= 1.70D-14 5.56D-09 XBig12= 4.01D-05 1.23D-03.
     15 vectors produced by pass  5 Test12= 1.70D-14 5.56D-09 XBig12= 5.49D-07 1.18D-04.
     15 vectors produced by pass  6 Test12= 1.70D-14 5.56D-09 XBig12= 4.34D-09 1.20D-05.
     14 vectors produced by pass  7 Test12= 1.70D-14 5.56D-09 XBig12= 3.37D-11 7.37D-07.
      3 vectors produced by pass  8 Test12= 1.70D-14 5.56D-09 XBig12= 2.38D-13 6.01D-08.
      1 vectors produced by pass  9 Test12= 1.70D-14 5.56D-09 XBig12= 1.62D-15 6.86D-09.
 InvSVY:  IOpt=1 It=  1 EMax= 6.66D-16
 Solved reduced A of dimension   123 with    15 vectors.
 FullF1:  Do perturbations      1 to      18.
 Saving first derivative matrices.
 End of Minotr F.D. properties file   721 does not exist.
 End of Minotr F.D. properties file   722 does not exist.
 End of Minotr F.D. properties file   788 does not exist.
 Leave Link 1002 at Sun Mar  6 19:33:44 2022, MaxMem= 16106127360 cpu:              72.6 elap:               2.7
 (Enter /sw/contrib/gaussian/g16/B01/g16/l811.exe)
 MDV= 16106127360.
 Form MO integral derivatives with frozen-active canonical formalism.
 MOERI=1 MOERIx=1 NAtoms=     5 NAtomX=     5.
 Discarding MO integrals.
 MO basis two electron integral derivatives will not be stored on disk.
 IAlg= 3 DoFC=T DoPWx=T Debug=F.
 Frozen-core window:  NFC=   4 NFV=   0.
 Reordered first order wavefunction length =     18678272
 In DefCFB: NBatch=  1 ICI= 16 ICA=191 LFMax= 96
            Large arrays: LIAPS=   619940160 LIARS=   288257200 words.
 In StABat: MaxSiz= 55 MinSiz= 25 NAtomB=  5
 DoIAMN: NPSUse= 28.
 Leave Link  811 at Sun Mar  6 19:35:14 2022, MaxMem= 16106127360 cpu:            2496.9 elap:              89.4
 (Enter /sw/contrib/gaussian/g16/B01/g16/l804.exe)
 Frozen-core window:  NFC=   4 NFV=   0.
 Closed-shell transformation, MDV= 16106127360 ITran=4 ISComp=1.
 Semi-Direct transformation.
 ModeAB=           2 MOrb=            16 LenV=   16104919855
 LASXX=     67341636 LTotXX=    67341636 LenRXX=    67341636
 LTotAB=    68301760 MaxLAS=    99807120 LenRXY=    99807120
 NonZer=   134683272 LenScr=   202817536 LnRSAI=           0
 LnScr1=           0 LExtra=           0 Total=    369966292
 MaxDsk=          -1 SrtSym=           F ITran=            4
 DoSDTr:  NPSUse= 28
 JobTyp=0 Pass  1:  I=   1 to  16.
 (rs|ai) integrals will be sorted in core.
 Complete sort for first half transformation.
 First half transformation complete.
 Begin second half transformation for I=  10.
 Begin second half transformation for I=  10.
 Complete sort for second half transformation.
 Second half transformation complete.
 Spin components of T(2) and E(2):
     alpha-alpha T2 =       0.3480512670D-01 E2=     -0.1245901979D+00
     alpha-beta  T2 =       0.1844674978D+00 E2=     -0.6997452898D+00
     beta-beta   T2 =       0.3480512670D-01 E2=     -0.1245901979D+00
 ANorm=    0.1583715727D+01
 E2 =    -0.9489256856D+00 EUMP2 =    -0.28045521469052D+03
 Leave Link  804 at Sun Mar  6 19:35:29 2022, MaxMem= 16106127360 cpu:             436.0 elap:              15.6
 (Enter /sw/contrib/gaussian/g16/B01/g16/l1002.exe)
 Minotr:  Closed shell wavefunction.
          Computing MP2/KS-MP2 derivatives.
          Using Z-Vector for PSCF gradient.
          Skipping F1 and S1 gradient terms here.
          IDoAtm=11111
          Frozen-core window.
          Using MO integrals in the linear equations.
          Forming densities via direct SCF.
          Differentiating once with respect to electric field.
                with respect to dipole field.
          Differentiating once with respect to nuclear coordinates.
          Using symmetry in CPHF.
          Requested convergence is 1.0D-10 RMS, and 1.0D-09 maximum.
          NewPWx=F KeepS1=T KeepF1=T KeepIn=T MapXYZ=F SortEE=F KeepMc=T.
          MDV=   16106127360 using IRadAn=       5.
          Solving linear equations separately, MaxMat=       0.
          There are     1 degrees of freedom in the 1st order CPHF.  IDoFFX=0 NUNeed=     1.
 FoFJK:  IHMeth= 1 ICntrl=       0 DoSepK=F KAlg= 0 I1Cent=           0 FoldK=F
 IRaf=         0 NMat=       1 IRICut=       1 DoRegI=T DoRafI=F ISym2E= 0 IDoP0=0 IntGTp=1.
 FoFCou: FMM=F IPFlag=           0 FMFlag=      100000 FMFlg1=           0
         NFxFlg=           0 DoJE=F BraDBF=F KetDBF=F FulRan=T
         wScrn=  0.000000 ICntrl=         0 IOpCl=  0 I1Cent=           0 NGrid=           0
         NMat0=    1 NMatS0=      1 NMatT0=    0 NMatD0=    1 NMtDS0=    0 NMtDT0=    0
 Symmetry not used in FoFCou.
 LinEq1:  Iter=  0 NonCon=     1 RMS=6.60D-03 Max=1.71D-01 NDo=     1
 LinEq1:  Iter=  1 NonCon=     1 RMS=2.00D-03 Max=3.07D-02 NDo=     1
 LinEq1:  Iter=  2 NonCon=     1 RMS=8.89D-04 Max=1.43D-02 NDo=     1
 LinEq1:  Iter=  3 NonCon=     1 RMS=3.80D-04 Max=8.10D-03 NDo=     1
 LinEq1:  Iter=  4 NonCon=     1 RMS=1.37D-04 Max=1.66D-03 NDo=     1
 LinEq1:  Iter=  5 NonCon=     1 RMS=7.62D-05 Max=1.39D-03 NDo=     1
 LinEq1:  Iter=  6 NonCon=     1 RMS=2.43D-05 Max=2.91D-04 NDo=     1
 LinEq1:  Iter=  7 NonCon=     1 RMS=8.25D-06 Max=1.12D-04 NDo=     1
 LinEq1:  Iter=  8 NonCon=     1 RMS=4.00D-06 Max=6.16D-05 NDo=     1
 LinEq1:  Iter=  9 NonCon=     1 RMS=1.04D-06 Max=1.14D-05 NDo=     1
 LinEq1:  Iter= 10 NonCon=     1 RMS=2.32D-07 Max=2.85D-06 NDo=     1
 LinEq1:  Iter= 11 NonCon=     1 RMS=5.01D-08 Max=7.59D-07 NDo=     1
 LinEq1:  Iter= 12 NonCon=     1 RMS=1.18D-08 Max=1.63D-07 NDo=     1
 LinEq1:  Iter= 13 NonCon=     1 RMS=2.07D-09 Max=2.34D-08 NDo=     1
 LinEq1:  Iter= 14 NonCon=     1 RMS=4.33D-10 Max=5.69D-09 NDo=     1
 LinEq1:  Iter= 15 NonCon=     0 RMS=8.85D-11 Max=9.46D-10 NDo=     1
 Linear equations converged to 1.000D-10 1.000D-09 after    15 iterations.
 End of Minotr F.D. properties file   721 does not exist.
 End of Minotr F.D. properties file   722 does not exist.
 End of Minotr F.D. properties file   788 does not exist.
 Leave Link 1002 at Sun Mar  6 19:35:32 2022, MaxMem= 16106127360 cpu:              71.7 elap:               2.6
 (Enter /sw/contrib/gaussian/g16/B01/g16/l1102.exe)
 Use density number 2.
 Symmetrizing basis deriv contribution to polar:
 IMax=3 JMax=2 DiffMx= 0.00D+00
 Leave Link 1102 at Sun Mar  6 19:35:32 2022, MaxMem= 16106127360 cpu:               1.2 elap:               0.1
 (Enter /sw/contrib/gaussian/g16/B01/g16/l1110.exe)
 Forming Gx(P) for generalized density number  2 NAtomX=     5.
 Integral derivatives from FoFJK, PRISM(SPDF).
 Do as many integral derivatives as possible in FoFJK.
 G2DrvN: MDV=   16106126844.
 G2DrvN: will do     6 centers at a time, making    1 passes.
 Calling FoFCou, ICntrl=  3107 FMM=F I1Cent=   0 AccDes= 0.00D+00.
 FoFJK:  IHMeth= 1 ICntrl=    3107 DoSepK=F KAlg= 0 I1Cent=           0 FoldK=F
 IRaf=         0 NMat=       1 IRICut=       1 DoRegI=T DoRafI=F ISym2E= 1 IDoP0=0 IntGTp=1.
 FoFCou: FMM=F IPFlag=           0 FMFlag=      100000 FMFlg1=           0
         NFxFlg=           0 DoJE=F BraDBF=F KetDBF=F FulRan=T
         wScrn=  0.000000 ICntrl=      3107 IOpCl=  0 I1Cent=           0 NGrid=           0
         NMat0=    1 NMatS0=      1 NMatT0=    0 NMatD0=    1 NMtDS0=    0 NMtDT0=    0
 Petite list used in FoFCou.
 End of G2Drv F.D. properties file   721 does not exist.
 End of G2Drv F.D. properties file   722 does not exist.
 End of G2Drv F.D. properties file   788 does not exist.
 Leave Link 1110 at Sun Mar  6 19:35:35 2022, MaxMem= 16106127360 cpu:              80.6 elap:               2.9
 (Enter /sw/contrib/gaussian/g16/B01/g16/l1112.exe)
 MP22nd: MDV=   16106127360
 This link is doing NAtomX=     5 total of    18 degrees of freedom.
 Using ON3 I/O method in MakUI.
 Frozen-core window:  NFC=   4 NFV=   0.
 Using Ix for Sx.
 Use MO integrals over full window.
 Using OV2 memory method for fx*t*t/D, MaxI=    16 DoOO2=F NP=  28.
 R2 and R3 integrals will be kept in memory, NReq=   915591705.
 FoFCou: FMM=F IPFlag=           0 FMFlag=           0 FMFlg1=           0
         NFxFlg=           0 DoJE=F BraDBF=F KetDBF=F FulRan=T
         wScrn=  0.000000 ICntrl=       600 IOpCl=  0 I1Cent=           0 NGrid=           0
         NMat0=    1 NMatS0=      1 NMatT0=    0 NMatD0=    1 NMtDS0=    0 NMtDT0=    0
 Symmetry not used in FoFCou.
 DD1Dir will call FoFMem   1 times, MxPair=       272
 NAB=   136 NAA=     0 NBB=     0.
 Symmetry is being used.
 FoFJK:  IHMeth= 1 ICntrl=       0 DoSepK=F KAlg= 0 I1Cent=           0 FoldK=F
 IRaf=         0 NMat=      18 IRICut=      45 DoRegI=T DoRafI=T ISym2E= 2 IDoP0=3 IntGTp=3.
 Discarding MO integrals.
 Leave Link 1112 at Sun Mar  6 19:36:09 2022, MaxMem= 16106127360 cpu:             925.6 elap:              33.4
 (Enter /sw/contrib/gaussian/g16/B01/g16/l601.exe)
 Copying SCF densities to generalized density rwf, IOpCl= 0 IROHF=0.

 **********************************************************************

            Population analysis using the MP2 Density.

 **********************************************************************

 Orbital symmetries:
       Occupied  (A') (A') (A') (A') (A') (A') (A') (A') (A') (A')
                 (A") (A') (A') (A") (A') (A")
       Virtual   (A') (A") (A') (A') (A") (A') (A') (A') (A") (A')
                 (A") (A') (A') (A') (A") (A') (A') (A") (A') (A')
                 (A') (A') (A') (A') (A") (A') (A') (A") (A') (A')
                 (A') (A") (A") (A') (A') (A') (A") (A') (A") (A')
                 (A") (A") (A') (A') (A") (A') (A') (A") (A') (A')
                 (A') (A") (A') (A') (A") (A') (A") (A') (A") (A')
                 (A') (A') (A") (A') (A') (A") (A') (A") (A') (A')
                 (A") (A') (A") (A") (A') (A') (A") (A') (A') (A')
                 (A") (A') (A') (A") (A') (A") (A") (A') (A') (A')
                 (A') (A') (A") (A") (A') (A') (A") (A") (A') (A")
                 (A') (A') (A") (A') (A") (A') (A') (A') (A") (A")
                 (A') (A') (A') (A') (A") (A') (A') (A') (A") (A')
                 (A") (A') (A") (A') (A") (A") (A') (A") (A') (A')
                 (A') (A') (A") (A') (A') (A") (A") (A') (A') (A')
                 (A") (A") (A') (A') (A') (A") (A') (A') (A') (A")
                 (A') (A') (A') (A") (A') (A") (A") (A') (A') (A")
                 (A') (A") (A') (A") (A") (A') (A") (A') (A") (A")
                 (A') (A") (A") (A') (A') (A") (A') (A') (A") (A')
                 (A') (A') (A') (A') (A') (A') (A') (A') (A') (A')
                 (A')
 The electronic state is 1-A'.
 Alpha  occ. eigenvalues --  -20.72045 -20.68758 -20.66754 -15.82602  -1.64506
 Alpha  occ. eigenvalues --   -1.50508  -1.29375  -0.96044  -0.83579  -0.75920
 Alpha  occ. eigenvalues --   -0.74039  -0.63665  -0.61917  -0.61819  -0.50506
 Alpha  occ. eigenvalues --   -0.49767
 Alpha virt. eigenvalues --    0.03517   0.06001   0.09508   0.10020   0.11971
 Alpha virt. eigenvalues --    0.12267   0.14955   0.15235   0.17748   0.18019
 Alpha virt. eigenvalues --    0.18971   0.21099   0.21671   0.24319   0.24629
 Alpha virt. eigenvalues --    0.26908   0.31348   0.31754   0.33811   0.34312
 Alpha virt. eigenvalues --    0.34655   0.39318   0.44986   0.48902   0.50523
 Alpha virt. eigenvalues --    0.51809   0.54513   0.56097   0.59856   0.62010
 Alpha virt. eigenvalues --    0.63891   0.68997   0.71684   0.72388   0.74386
 Alpha virt. eigenvalues --    0.76474   0.76762   0.79580   0.80727   0.83905
 Alpha virt. eigenvalues --    0.84289   0.85191   0.88532   0.90825   0.93155
 Alpha virt. eigenvalues --    0.94771   0.95450   1.01826   1.03332   1.06616
 Alpha virt. eigenvalues --    1.06752   1.09669   1.14620   1.15644   1.16965
 Alpha virt. eigenvalues --    1.22263   1.22820   1.24555   1.35640   1.35758
 Alpha virt. eigenvalues --    1.37067   1.46893   1.48545   1.50414   1.54374
 Alpha virt. eigenvalues --    1.59704   1.59868   1.60580   1.63059   1.69577
 Alpha virt. eigenvalues --    1.74091   1.80050   1.82917   1.88818   1.89769
 Alpha virt. eigenvalues --    1.93075   1.97972   1.99089   2.05243   2.12251
 Alpha virt. eigenvalues --    2.13164   2.16648   2.18962   2.24449   2.26080
 Alpha virt. eigenvalues --    2.29369   2.35507   2.36891   2.38555   2.40369
 Alpha virt. eigenvalues --    2.43496   2.47008   2.48099   2.53082   2.53965
 Alpha virt. eigenvalues --    2.55074   2.55959   2.61764   2.63149   2.67417
 Alpha virt. eigenvalues --    2.67656   2.75507   2.80976   2.82041   2.83962
 Alpha virt. eigenvalues --    2.92057   2.98574   3.04771   3.05350   3.11363
 Alpha virt. eigenvalues --    3.11889   3.18006   3.21402   3.30899   3.33222
 Alpha virt. eigenvalues --    3.35853   3.48041   3.67575   3.87010   3.93629
 Alpha virt. eigenvalues --    4.18763   4.22611   4.22795   4.27236   4.37205
 Alpha virt. eigenvalues --    4.49859   4.54115   4.55571   4.59991   4.69138
 Alpha virt. eigenvalues --    4.80883   4.89735   4.91474   4.94248   4.99908
 Alpha virt. eigenvalues --    5.00503   5.10641   5.13568   5.17829   5.25208
 Alpha virt. eigenvalues --    5.25874   5.31863   5.35081   5.36676   5.54483
 Alpha virt. eigenvalues --    5.64457   5.70735   5.89039   5.99614   6.26372
 Alpha virt. eigenvalues --    6.29564   6.36106   6.37630   6.59907   6.66031
 Alpha virt. eigenvalues --    6.66353   6.69282   6.72520   6.79554   6.80448
 Alpha virt. eigenvalues --    6.85338   6.96827   7.02043   7.06634   7.07971
 Alpha virt. eigenvalues --    7.13953   7.17504   7.18357   7.20440   7.24647
 Alpha virt. eigenvalues --    7.24760   7.27216   7.35129   7.39690   7.42969
 Alpha virt. eigenvalues --    7.44191   7.46311   7.56222   7.66276   7.67366
 Alpha virt. eigenvalues --    7.79423   7.88503   7.95584   8.07476   8.31020
 Alpha virt. eigenvalues --    8.50337   8.65104  13.62615  14.75076  15.11842
 Alpha virt. eigenvalues --   15.78825
          Condensed to atoms (all electrons):
               1          2          3          4          5
     1  H    0.580436   0.123193   0.023930   0.000469  -0.004278
     2  O    0.123193   8.391768  -0.228882  -0.000808  -0.010370
     3  O    0.023930  -0.228882   8.370127  -0.169837  -0.033113
     4  N    0.000469  -0.000808  -0.169837   7.136911  -0.121817
     5  O   -0.004278  -0.010370  -0.033113  -0.121817   8.363781
 Mulliken charges:
               1
     1  H    0.276250
     2  O   -0.274902
     3  O    0.037774
     4  N    0.155082
     5  O   -0.194203
 Sum of Mulliken charges =  -0.00000
 Mulliken charges with hydrogens summed into heavy atoms:
               1
     2  O    0.001348
     3  O    0.037774
     4  N    0.155082
     5  O   -0.194203
 APT charges:
               1
     1  H    0.273179
     2  O   -0.302643
     3  O   -0.309210
     4  N    0.641332
     5  O   -0.302659
 Sum of APT charges =  -0.00000
 APT charges with hydrogens summed into heavy atoms:
               1
     2  O   -0.029464
     3  O   -0.309210
     4  N    0.641332
     5  O   -0.302659
 Electronic spatial extent (au):  <R**2>=            206.4971
 Charge=             -0.0000 electrons
 Dipole moment (field-independent basis, Debye):
    X=              0.0347    Y=             -1.0890    Z=              0.0000  Tot=              1.0896
 Quadrupole moment (field-independent basis, Debye-Ang):
   XX=            -23.4222   YY=            -22.9052   ZZ=            -21.9315
   XY=             -1.9622   XZ=              0.0000   YZ=              0.0000
 Traceless Quadrupole moment (field-independent basis, Debye-Ang):
   XX=             -0.6692   YY=             -0.1523   ZZ=              0.8215
   XY=             -1.9622   XZ=              0.0000   YZ=              0.0000
 Octapole moment (field-independent basis, Debye-Ang**2):
  XXX=              2.5005  YYY=              0.2626  ZZZ=              0.0000  XYY=              2.3617
  XXY=             -2.7861  XXZ=              0.0000  XZZ=             -0.5859  YZZ=             -0.7017
  YYZ=             -0.0000  XYZ=             -0.0000
 Hexadecapole moment (field-independent basis, Debye-Ang**3):
 XXXX=           -126.5132 YYYY=            -94.6041 ZZZZ=            -18.0413 XXXY=            -21.2614
 XXXZ=              0.0000 YYYX=            -19.5554 YYYZ=              0.0000 ZZZX=              0.0000
 ZZZY=              0.0000 XXYY=            -35.4608 XXZZ=            -24.2282 YYZZ=            -18.5554
 XXYZ=              0.0000 YYXZ=              0.0000 ZZXY=             -5.8269
 N-N= 1.228876448482D+02 E-N=-9.073277520694D+02  KE= 2.802057436343D+02
 Symmetry A'   KE= 2.663569800887D+02
 Symmetry A"   KE= 1.384876354560D+01
  Exact polarizability:  30.819   4.091  29.819  -0.000  -0.000  17.609
 Approx polarizability:  24.497   0.473  27.666  -0.000  -0.000  15.509
 No NMR shielding tensors so no spin-rotation constants.
 Leave Link  601 at Sun Mar  6 19:36:09 2022, MaxMem= 16106127360 cpu:               3.7 elap:               0.2
 (Enter /sw/contrib/gaussian/g16/B01/g16/l701.exe)
 ... and contract with generalized density number  2.
 Compute integral second derivatives.
 Leave Link  701 at Sun Mar  6 19:36:09 2022, MaxMem= 16106127360 cpu:               7.5 elap:               0.3
 (Enter /sw/contrib/gaussian/g16/B01/g16/l702.exe)
 L702 exits ... SP integral derivatives will be done elsewhere.
 Leave Link  702 at Sun Mar  6 19:36:09 2022, MaxMem= 16106127360 cpu:               0.6 elap:               0.0
 (Enter /sw/contrib/gaussian/g16/B01/g16/l703.exe)
 Integral derivatives from FoFJK, PRISM(SPDF).
 Compute integral second derivatives, UseDBF=F ICtDFT=           0.
 Calling FoFJK, ICntrl=  10100127 FMM=F ISym2X=1 I1Cent= 0 IOpClX= 0 NMat=1 NMatS=1 NMatT=0.
 FoFJK:  IHMeth= 1 ICntrl=10100127 DoSepK=F KAlg= 0 I1Cent=           0 FoldK=F
 IRaf=         0 NMat=       1 IRICut=       1 DoRegI=T DoRafI=F ISym2E= 1 IDoP0=0 IntGTp=1.
 FoFCou: FMM=F IPFlag=           0 FMFlag=      100000 FMFlg1=         800
         NFxFlg=           0 DoJE=F BraDBF=F KetDBF=F FulRan=T
         wScrn=  0.000000 ICntrl=  10100127 IOpCl=  0 I1Cent=           0 NGrid=           0
         NMat0=    1 NMatS0=      1 NMatT0=    0 NMatD0=    1 NMtDS0=    0 NMtDT0=    0
 Petite list used in FoFCou.
 Leave Link  703 at Sun Mar  6 19:36:24 2022, MaxMem= 16106127360 cpu:             428.7 elap:              15.4
 (Enter /sw/contrib/gaussian/g16/B01/g16/l716.exe)
 Dipole        = 1.36689289D-02-4.28450241D-01 3.54421500D-33
 Polarizability= 3.08186549D+01 4.09144647D+00 2.98185133D+01
                -3.05540075D-32-1.93510295D-31 1.76088958D+01
 Full mass-weighted force constant matrix:
 Low frequencies ---  -30.4203  -18.2565   -0.0011   -0.0009    0.0019   26.6512
 Low frequencies ---  353.1637  408.7056  525.9724
 Diagonal vibrational polarizability:
        7.1638995       9.9389547      15.9551906
 Harmonic frequencies (cm**-1), IR intensities (KM/Mole), Raman scattering
 activities (A**4/AMU), depolarization ratios for plane and unpolarized
 incident light, reduced masses (AMU), force constants (mDyne/A),
 and normal coordinates:
                      1                      2                      3
                     A"                     A'                     A"
 Frequencies --    353.1358               408.7056               525.9620
 Red. masses --      1.5596                 7.0913                 2.8951
 Frc consts  --      0.1146                 0.6979                 0.4719
 IR Inten    --     62.5195                 7.8018                25.3241
  Atom  AN      X      Y      Z        X      Y      Z        X      Y      Z
     1   1     0.00   0.00   0.98    -0.73  -0.25   0.00     0.00   0.00   0.93
     2   8     0.00   0.00  -0.11    -0.33  -0.31  -0.00     0.00   0.00   0.05
     3   8     0.00  -0.00   0.12    -0.06   0.08   0.00    -0.00  -0.00  -0.18
     4   7    -0.00  -0.00  -0.11     0.05   0.09  -0.00     0.00   0.00   0.27
     5   8    -0.00  -0.00   0.03     0.39   0.17  -0.00    -0.00  -0.00  -0.17
                      4                      5                      6
                     A'                     A'                     A'
 Frequencies --    710.5880               837.6880               970.8153
 Red. masses --     13.3906                12.4530                 9.8546
 Frc consts  --      3.9837                 5.1486                 5.4722
 IR Inten    --    215.5865                31.7263                12.6634
  Atom  AN      X      Y      Z        X      Y      Z        X      Y      Z
     1   1    -0.35   0.01   0.00     0.43  -0.16  -0.00    -0.62  -0.00  -0.00
     2   8    -0.01  -0.08   0.00     0.53  -0.21   0.00     0.19  -0.17   0.00
     3   8     0.38   0.58  -0.00    -0.39  -0.01  -0.00    -0.36   0.41  -0.00
     4   7    -0.41  -0.46   0.00    -0.43  -0.06  -0.00     0.39   0.05  -0.00
     5   8     0.01  -0.10  -0.00     0.20   0.28   0.00    -0.13  -0.28   0.00
                      7                      8                      9
                     A'                     A'                     A'
 Frequencies --   1435.4946              1572.4997              3483.5299
 Red. masses --      1.3160                 6.0761                 1.0637
 Frc consts  --      1.5978                 8.8524                 7.6049
 IR Inten    --     80.8006               149.1746                44.6235
  Atom  AN      X      Y      Z        X      Y      Z        X      Y      Z
     1   1     0.97  -0.21  -0.00    -0.78   0.18   0.00     0.16   0.99   0.00
     2   8    -0.07  -0.05  -0.00     0.02   0.02   0.00    -0.01  -0.06  -0.00
     3   8    -0.03   0.06   0.00    -0.03  -0.06  -0.00     0.00  -0.00   0.00
     4   7     0.07  -0.06  -0.00     0.24  -0.39   0.00    -0.00   0.00   0.00
     5   8    -0.02   0.05   0.00    -0.15   0.36  -0.00     0.00  -0.00  -0.00

 -------------------
 - Thermochemistry -
 -------------------
 Temperature   298.150 Kelvin.  Pressure   1.00000 Atm.
 Atom     1 has atomic number  1 and mass   1.00783
 Atom     2 has atomic number  8 and mass  15.99491
 Atom     3 has atomic number  8 and mass  15.99491
 Atom     4 has atomic number  7 and mass  14.00307
 Atom     5 has atomic number  8 and mass  15.99491
 Molecular mass:    62.99564 amu.
 Principal axes and moments of inertia in atomic units:
                           1         2         3
     Eigenvalues --    84.92221 220.85872 305.78093
           X            0.79543  -0.60604   0.00000
           Y            0.60604   0.79543   0.00000
           Z            0.00000  -0.00000   1.00000
 This molecule is an asymmetric top.
 Rotational symmetry number  1.
 Rotational temperatures (Kelvin)      1.01992     0.39217     0.28325
 Rotational constants (GHZ):          21.25170     8.17147     5.90207
 Zero-point vibrational energy      61598.2 (Joules/Mol)
                                   14.72233 (Kcal/Mol)
 Warning -- explicit consideration of   3 degrees of freedom as
           vibrations may cause significant error
 Vibrational temperatures:    508.08   588.04   756.74  1022.38  1205.25
          (Kelvin)           1396.79  2065.36  2262.48  5012.02
 
 Zero-point correction=                           0.023462 (Hartree/Particle)
 Thermal correction to Energy=                    0.027386
 Thermal correction to Enthalpy=                  0.028331
 Thermal correction to Gibbs Free Energy=        -0.002500
 Sum of electronic and zero-point Energies=           -280.431753
 Sum of electronic and thermal Energies=              -280.427828
 Sum of electronic and thermal Enthalpies=            -280.426884
 Sum of electronic and thermal Free Energies=         -280.457714
 
                     E (Thermal)             CV                S
                      KCal/Mol        Cal/Mol-Kelvin    Cal/Mol-Kelvin
 Total                   17.185             12.136             64.888
 Electronic               0.000              0.000              0.000
 Translational            0.889              2.981             38.341
 Rotational               0.889              2.981             23.265
 Vibrational             15.408              6.174              3.281
 Vibration     1          0.729              1.569              1.152
 Vibration     2          0.773              1.451              0.931
 Vibration     3          0.881              1.193              0.596
                       Q            Log10(Q)             Ln(Q)
 Total Bot       0.141156D+02          1.149699          2.647280
 Total V=0       0.873457D+12         11.941242         27.495725
 Vib (Bot)       0.264948D-10        -10.576839        -24.354073
 Vib (Bot)    1  0.521393D+00         -0.282834         -0.651250
 Vib (Bot)    2  0.433302D+00         -0.363209         -0.836320
 Vib (Bot)    3  0.305211D+00         -0.515400         -1.186752
 Vib (V=0)       0.163947D+01          0.214703          0.494373
 Vib (V=0)    1  0.122239D+01          0.087211          0.200810
 Vib (V=0)    2  0.116163D+01          0.065067          0.149822
 Vib (V=0)    3  0.108579D+01          0.035747          0.082311
 Electronic      0.100000D+01          0.000000          0.000000
 Translational   0.196526D+08          7.293420         16.793719
 Rotational      0.271093D+05          4.433119         10.207633
 
                                                                title
                                                             IR Spectrum
 
     3                                                                     1    1                                                    
     4                                                                     5    4                9    8    7     5    4 3            
     8                                                                     7    3                7    3    1     2    0 5            
     4                                                                     2    5                1    8    1     6    9 3            
 
     X                                                                     X    X                X    X    X     X    X X            
     X                                                                     X    X                     X    X     X      X            
     X                                                                     X    X                     X    X            X            
     X                                                                     X    X                          X            X            
                                                                           X    X                          X            X            
                                                                           X    X                          X            X            
                                                                           X    X                          X                         
                                                                           X                               X                         
                                                                           X                               X                         
                                                                           X                               X                         
                                                                           X                               X                         
                                                                           X                               X                         
                                                                           X                               X                         
                                                                           X                               X                         
                                                                                                           X                         
                                                                                                           X                         
                                                                                                           X                         
                                                                                                           X                         
                                                                                                           X                         
                                                                                                           X                         
 
 ***** Axes restored to original set *****
 -------------------------------------------------------------------
 Center     Atomic                   Forces (Hartrees/Bohr)
 Number     Number              X              Y              Z
 -------------------------------------------------------------------
      1        1           0.000062378   -0.000000000   -0.000135583
      2        8          -0.000774581    0.000000000    0.002025507
      3        8          -0.001170954    0.000000000   -0.002329249
      4        7           0.001902968   -0.000000000    0.000889034
      5        8          -0.000019811    0.000000000   -0.000449708
 -------------------------------------------------------------------
 Cartesian Forces:  Max     0.002329249 RMS     0.001037168
 -----------------------------------------------------------------------------------------------
                       Internal Coordinate Forces (Hartree/Bohr or radian)
  Cent   Atom   N1       Length/X         N2         Alpha/Y        N3         Beta/Z          J
 -----------------------------------------------------------------------------------------------
      1  H 
      2  O        1   0.000136(     1)
      3  O        2   0.000351(     2)      1  -0.000116(     5)
      4  N        3   0.000665(     3)      2   0.005246(     6)      1  -0.000000(     8)     0
      5  O        4   0.000390(     4)      3   0.000507(     7)      2   0.000000(     9)     0
 -----------------------------------------------------------------------------------------------
 Internal  Forces:  Max     0.005246024 RMS     0.001780353
 Force constants in Cartesian coordinates: 
                1             2             3             4             5 
      1  0.726705D-01
      2  0.000000D+00  0.612987D-02
      3  0.246226D-01  0.000000D+00  0.435641D+00
      4 -0.520287D-01  0.000000D+00 -0.465714D-02  0.281757D+00
      5  0.000000D+00 -0.231381D-02  0.000000D+00  0.000000D+00  0.121404D-01
      6  0.315437D-01  0.000000D+00 -0.418986D+00 -0.145404D-01  0.000000D+00
      7 -0.250028D-01  0.000000D+00 -0.162412D-01 -0.169802D+00  0.000000D+00
      8  0.000000D+00 -0.435037D-02  0.000000D+00  0.000000D+00 -0.196693D-01
      9 -0.432725D-01  0.000000D+00 -0.203920D-01  0.113315D-01  0.000000D+00
     10 -0.637610D-02  0.000000D+00  0.652404D-02 -0.851684D-01  0.000000D+00
     11  0.000000D+00  0.820336D-02  0.000000D+00  0.000000D+00  0.203594D-01
     12 -0.198584D-01  0.000000D+00  0.124905D-01  0.121451D-01  0.000000D+00
     13  0.107372D-01  0.000000D+00 -0.102484D-01  0.252426D-01  0.000000D+00
     14  0.000000D+00 -0.766906D-02  0.000000D+00  0.000000D+00 -0.105166D-01
     15  0.696457D-02  0.000000D+00 -0.875259D-02 -0.427917D-02  0.000000D+00
                6             7             8             9            10 
      6  0.522678D+00
      7 -0.909746D-01  0.303383D+00
      8  0.000000D+00  0.000000D+00  0.421987D-01
      9 -0.955378D-01  0.813423D-01  0.000000D+00  0.314199D+00
     10  0.407047D-01 -0.143809D+00  0.000000D+00 -0.340961D-01  0.561322D+00
     11  0.000000D+00  0.000000D+00 -0.483026D-01  0.000000D+00  0.000000D+00
     12 -0.121733D-01  0.175510D-01  0.000000D+00 -0.239257D-01  0.242658D+00
     13  0.332666D-01  0.352317D-01  0.000000D+00 -0.153053D-01 -0.325969D+00
     14  0.000000D+00  0.000000D+00  0.301236D-01  0.000000D+00  0.000000D+00
     15  0.401921D-02  0.832243D-02  0.000000D+00 -0.174343D+00 -0.255790D+00
               11            12            13            14            15 
     11  0.573579D-01
     12  0.000000D+00  0.443718D+00
     13  0.000000D+00 -0.252495D+00  0.254757D+00
     14 -0.376182D-01  0.000000D+00  0.000000D+00  0.256803D-01
     15  0.000000D+00 -0.420109D+00  0.244782D+00  0.000000D+00  0.599186D+00
 Force constants in internal coordinates: 
                1             2             3             4             5 
      1  0.435641D+00
      2  0.226962D-01  0.259352D+00
      3  0.516779D-02  0.180115D-01  0.210219D+00
      4 -0.128834D-01  0.227310D-01  0.148988D+00  0.721731D+00
      5  0.459119D-01  0.570793D-01 -0.245325D-01  0.216677D-01  0.252229D+00
      6  0.117163D-01  0.257960D-01  0.100344D+00  0.102751D-01 -0.578176D-02
      7  0.893355D-02 -0.733485D-01  0.126561D+00  0.116943D+00 -0.224014D-01
      8  0.000000D+00  0.000000D+00  0.000000D+00  0.000000D+00  0.000000D+00
      9  0.000000D+00  0.000000D+00  0.000000D+00  0.000000D+00  0.000000D+00
                6             7             8             9 
      6  0.546675D+00
      7  0.765221D-01  0.674867D+00
      8  0.000000D+00  0.000000D+00  0.207955D-01
      9  0.000000D+00  0.000000D+00  0.288738D-01  0.109226D+00
 Leave Link  716 at Sun Mar  6 19:36:25 2022, MaxMem= 16106127360 cpu:               1.4 elap:               0.1
 (Enter /sw/contrib/gaussian/g16/B01/g16/l103.exe)

 GradGradGradGradGradGradGradGradGradGradGradGradGradGradGradGradGradGrad
 Berny optimization.
 Search for a local minimum.
 Step number   1 out of a maximum of    2
 All quantities printed in internal units (Hartrees-Bohrs-Radians)
 Second derivative matrix not updated -- analytic derivatives used.
 The second derivative matrix:
                          r1        r2        r3        r4        a1
           r1           0.43564
           r2           0.02270   0.25935
           r3           0.00517   0.01801   0.21022
           r4          -0.01288   0.02273   0.14899   0.72173
           a1           0.04591   0.05708  -0.02453   0.02167   0.25223
           a2           0.01172   0.02580   0.10034   0.01028  -0.00578
           a3           0.00893  -0.07335   0.12656   0.11694  -0.02240
           d1          -0.00000  -0.00000  -0.00000   0.00000   0.00000
           d2          -0.00000   0.00000   0.00000   0.00000   0.00000
                          a2        a3        d1        d2
           a2           0.54668
           a3           0.07652   0.67487
           d1          -0.00000   0.00000   0.02080
           d2           0.00000  -0.00000   0.02887   0.10923
 ITU=  0
     Eigenvalues ---    0.01220   0.11782   0.12386   0.20428   0.27591
     Eigenvalues ---    0.44925   0.52784   0.62326   0.89631
 Angle between quadratic step and forces=  21.22 degrees.
 Linear search not attempted -- first point.
 Variable       Old X    -DE/DX   Delta X   Delta X   Delta X     New X
                                 (Linear)    (Quad)   (Total)
    r1        1.86209   0.00014   0.00000   0.00014   0.00014   1.86223
    r2        2.69614   0.00035   0.00000   0.00057   0.00057   2.69671
    r3        2.60992   0.00066   0.00000  -0.00233  -0.00233   2.60758
    r4        2.25782   0.00039   0.00000   0.00090   0.00090   2.25872
    a1        1.75642  -0.00012   0.00000  -0.00070  -0.00070   1.75572
    a2        1.96528   0.00525   0.00000   0.00998   0.00998   1.97526
    a3        1.99550   0.00051   0.00000  -0.00006  -0.00006   1.99544
    d1        0.00000  -0.00000   0.00000  -0.00000  -0.00000  -0.00000
    d2        0.00000   0.00000   0.00000  -0.00000  -0.00000  -0.00000
         Item               Value     Threshold  Converged?
 Maximum Force            0.005246     0.000450     NO 
 RMS     Force            0.001780     0.000300     NO 
 Maximum Displacement     0.009979     0.001800     NO 
 RMS     Displacement     0.003442     0.001200     NO 
 Predicted change in Energy=-2.570863D-05
                       ----------------------------
                       ! Non-Optimized Parameters !
                       ! (Angstroms and Degrees)  !
 ----------------------                            ----------------------
 !      Name          Value   Derivative information (Atomic Units)     !
 ------------------------------------------------------------------------
 !       r1          0.9855   -DE/DX =    0.0001                        !
 !       r2          1.427    -DE/DX =    0.0004                        !
 !       r3          1.3799   -DE/DX =    0.0007                        !
 !       r4          1.1953   -DE/DX =    0.0004                        !
 !       a1        100.5956   -DE/DX =   -0.0001                        !
 !       a2        113.1739   -DE/DX =    0.0052                        !
 !       a3        114.3304   -DE/DX =    0.0005                        !
 !       d1          0.0      -DE/DX =    0.0                           !
 !       d2          0.0      -DE/DX =    0.0                           !
 ------------------------------------------------------------------------
 GradGradGradGradGradGradGradGradGradGradGradGradGradGradGradGradGradGrad

 Leave Link  103 at Sun Mar  6 19:36:25 2022, MaxMem= 16106127360 cpu:               0.5 elap:               0.0
 (Enter /sw/contrib/gaussian/g16/B01/g16/l9999.exe)

 ----------------------------------------------------------------------

 Electric dipole moment (input orientation):
 (Debye = 10**-18 statcoulomb cm , SI units = C m)
                  (au)            (Debye)         (10**-30 SI)
   Tot        0.428668D+00      0.108957D+01      0.363440D+01
   x         -0.106309D+00     -0.270212D+00     -0.901329D+00
   y          0.000000D+00      0.000000D+00      0.000000D+00
   z         -0.415277D+00     -0.105553D+01     -0.352086D+01

 Dipole polarizability, Alpha (input orientation).
 (esu units = cm**3 , SI units = C**2 m**2 J**-1)
 Alpha(0;0):
               (au)            (10**-24 esu)      (10**-40 SI)
   iso        0.260820D+02      0.386496D+01      0.430034D+01
   aniso      0.145776D+02      0.216018D+01      0.240352D+01
   xx         0.290383D+02      0.430304D+01      0.478777D+01
   yx         0.000000D+00      0.000000D+00      0.000000D+00
   yy         0.176089D+02      0.260937D+01      0.290331D+01
   zx        -0.391803D+01     -0.580592D+00     -0.645995D+00
   zy         0.000000D+00      0.000000D+00      0.000000D+00
   zz         0.315988D+02      0.468247D+01      0.520995D+01

 ----------------------------------------------------------------------

 Dipole orientation:
     1          0.00000000         -0.00000000         -0.00000000
     8         -0.46179781         -0.00000000         -1.80392054
     8          1.98184228         -0.00000000         -2.94313179
     7          3.90904913          0.00000000         -1.18315137
     8          3.20874671          0.00000000          0.96332040

 Electric dipole moment (dipole orientation):
 (Debye = 10**-18 statcoulomb cm , SI units = C m)
                  (au)            (Debye)         (10**-30 SI)
   Tot        0.428668D+00      0.108957D+01      0.363440D+01
   x          0.000000D+00      0.000000D+00      0.000000D+00
   y          0.000000D+00      0.000000D+00      0.000000D+00
   z          0.428668D+00      0.108957D+01      0.363440D+01

 Dipole polarizability, Alpha (dipole orientation).
 (esu units = cm**3 , SI units = C**2 m**2 J**-1)
 Alpha(0;0):
               (au)            (10**-24 esu)      (10**-40 SI)
   iso        0.260820D+02      0.386496D+01      0.430034D+01
   aniso      0.145776D+02      0.216018D+01      0.240352D+01
   xx         0.310784D+02      0.460535D+01      0.512414D+01
   yx         0.000000D+00      0.000000D+00      0.000000D+00
   yy         0.176089D+02      0.260937D+01      0.290331D+01
   zx         0.405125D+01      0.600333D+00      0.667961D+00
   zy         0.000000D+00      0.000000D+00      0.000000D+00
   zz         0.295587D+02      0.438015D+01      0.487358D+01

 ----------------------------------------------------------------------
 1\1\GINC-N2398\Freq\RMP2-FC\Aug-CC-pVTZ\H1N1O3\CGAVINH\06-Mar-2022\1\\
 #p freq mp2/aug-cc-pvtz density=current\\title\\0,1\H\O,1,r1\O,2,r2,1,
 a1\N,3,r3,2,a2,1,d1,0\O,4,r4,3,a3,2,d2,0\\r1=0.98537664\r2=1.42673666\
 r3=1.38110764\r4=1.19478846\a1=100.6355057\a2=112.60211014\a3=114.3339
 2022\d1=0.\d2=0.\\Version=ES64L-G16RevB.01\State=1-A'\HF=-279.506289\M
 P2=-280.4552147\RMSD=4.544e-09\RMSF=1.037e-03\ZeroPoint=0.0234615\Ther
 mal=0.0273864\Dipole=-0.1063095,0.,-0.4152767\DipoleDeriv=0.3183426,0.
 ,0.0357913,0.,0.2971653,0.,-0.0280446,0.,0.2040304,-0.5236858,0.,0.282
 6553,0.,-0.2549423,0.,-0.1006709,0.,-0.1293016,0.0083276,0.,0.3280826,
 0.,-0.0083284,0.,0.4343484,0.,-0.9276279,0.1926303,0.,-0.1256119,0.,0.
 0107561,0.,-0.6505565,0.,1.7206096,0.0043853,0.,-0.5209173,0.,-0.04465
 07,0.,0.3449235,0.,-0.8677104\Polar=29.0383235,0.,17.6088958,-3.918027
 3,0.,31.5988447\Quadrupole=0.1385717,0.6107623,-0.7493339,0.,1.4029154
 ,0.\PG=CS [SG(H1N1O3)]\NImag=0\\0.07267049,0.,0.00612987,0.02462265,0.
 ,0.43564059,-0.05202873,0.,-0.00465714,0.28175684,0.,-0.00231381,0.,0.
 ,0.01214037,0.03154368,0.,-0.41898649,-0.01454036,0.,0.52267837,-0.025
 00281,0.,-0.01624119,-0.16980232,0.,-0.09097457,0.30338252,0.,-0.00435
 037,0.,0.,-0.01966934,0.,0.,0.04219869,-0.04327247,0.,-0.02039204,0.01
 133154,0.,-0.09553778,0.08134229,0.,0.31419885,-0.00637610,0.,0.006524
 04,-0.08516842,0.,0.04070468,-0.14380912,0.,-0.03409610,0.56132246,0.,
 0.00820336,0.,0.,0.02035942,0.,0.,-0.04830256,0.,0.,0.05735793,-0.0198
 5843,0.,0.01249053,0.01214513,0.,-0.01217330,0.01755103,0.,-0.02392572
 ,0.24265754,0.,0.44371784,0.01073715,0.,-0.01024836,0.02524264,0.,0.03
 326658,0.03523173,0.,-0.01530527,-0.32596882,0.,-0.25249527,0.25475729
 ,0.,-0.00766906,0.,0.,-0.01051664,0.,0.,0.03012358,0.,0.,-0.03761815,0
 .,0.,0.02568027,0.00696457,0.,-0.00875259,-0.00427917,0.,0.00401921,0.
 00832243,0.,-0.17434330,-0.25579016,0.,-0.42010934,0.24478232,0.,0.599
 18602\\-0.00006238,0.,0.00013558,0.00077458,0.,-0.00202551,0.00117095,
 0.,0.00232925,-0.00190297,0.,-0.00088903,0.00001981,0.,0.00044971\\\@


 Boundary, n.  In political geography, an imaginary
 line between two nations, separating the imaginary
 rights of one from the imaginary rights of another.
                               -- Ambrose Bierce
 Job cpu time:       0 days  2 hours  2 minutes 13.6 seconds.
 Elapsed time:       0 days  0 hours  4 minutes 25.2 seconds.
 File lengths (MBytes):  RWF=   7239 Int=      0 D2E=      0 Chk=      8 Scr=      1
 Normal termination of Gaussian 16 at Sun Mar  6 19:36:26 2022.
