 Entering Gaussian System, Link 0=g16
 Input=hoono_r4_1p178656.gjf
 Output=hoono_r4_1p178656.log
 Initial command:
 /sw/contrib/gaussian/g16/B01/g16/l1.exe "/scr/Gau-5812.inp" -scrdir="/scr/"
 Entering Link 1 = /sw/contrib/gaussian/g16/B01/g16/l1.exe PID=      5813.
  
 Copyright (c) 1988-2017, Gaussian, Inc.  All Rights Reserved.
  
 This is part of the Gaussian(R) 16 program.  It is based on
 the Gaussian(R) 09 system (copyright 2009, Gaussian, Inc.),
 the Gaussian(R) 03 system (copyright 2003, Gaussian, Inc.),
 the Gaussian(R) 98 system (copyright 1998, Gaussian, Inc.),
 the Gaussian(R) 94 system (copyright 1995, Gaussian, Inc.),
 the Gaussian 92(TM) system (copyright 1992, Gaussian, Inc.),
 the Gaussian 90(TM) system (copyright 1990, Gaussian, Inc.),
 the Gaussian 88(TM) system (copyright 1988, Gaussian, Inc.),
 the Gaussian 86(TM) system (copyright 1986, Carnegie Mellon
 University), and the Gaussian 82(TM) system (copyright 1983,
 Carnegie Mellon University). Gaussian is a federally registered
 trademark of Gaussian, Inc.
  
 This software contains proprietary and confidential information,
 including trade secrets, belonging to Gaussian, Inc.
  
 This software is provided under written license and may be
 used, copied, transmitted, or stored only in accord with that
 written license.
  
 The following legend is applicable only to US Government
 contracts under FAR:
  
                    RESTRICTED RIGHTS LEGEND
  
 Use, reproduction and disclosure by the US Government is
 subject to restrictions as set forth in subparagraphs (a)
 and (c) of the Commercial Computer Software - Restricted
 Rights clause in FAR 52.227-19.
  
 Gaussian, Inc.
 340 Quinnipiac St., Bldg. 40, Wallingford CT 06492
  
  
 ---------------------------------------------------------------
 Warning -- This program may not be used in any manner that
 competes with the business of Gaussian, Inc. or will provide
 assistance to any competitor of Gaussian, Inc.  The licensee
 of this program is prohibited from giving any competitor of
 Gaussian, Inc. access to this program.  By using this program,
 the user acknowledges that Gaussian, Inc. is engaged in the
 business of creating and licensing software in the field of
 computational chemistry and represents and warrants to the
 licensee that it is not a competitor of Gaussian, Inc. and that
 it will not use this program in any manner prohibited above.
 ---------------------------------------------------------------
  

 Cite this work as:
 Gaussian 16, Revision B.01,
 M. J. Frisch, G. W. Trucks, H. B. Schlegel, G. E. Scuseria, 
 M. A. Robb, J. R. Cheeseman, G. Scalmani, V. Barone, 
 G. A. Petersson, H. Nakatsuji, X. Li, M. Caricato, A. V. Marenich, 
 J. Bloino, B. G. Janesko, R. Gomperts, B. Mennucci, H. P. Hratchian, 
 J. V. Ortiz, A. F. Izmaylov, J. L. Sonnenberg, D. Williams-Young, 
 F. Ding, F. Lipparini, F. Egidi, J. Goings, B. Peng, A. Petrone, 
 T. Henderson, D. Ranasinghe, V. G. Zakrzewski, J. Gao, N. Rega, 
 G. Zheng, W. Liang, M. Hada, M. Ehara, K. Toyota, R. Fukuda, 
 J. Hasegawa, M. Ishida, T. Nakajima, Y. Honda, O. Kitao, H. Nakai, 
 T. Vreven, K. Throssell, J. A. Montgomery, Jr., J. E. Peralta, 
 F. Ogliaro, M. J. Bearpark, J. J. Heyd, E. N. Brothers, K. N. Kudin, 
 V. N. Staroverov, T. A. Keith, R. Kobayashi, J. Normand, 
 K. Raghavachari, A. P. Rendell, J. C. Burant, S. S. Iyengar, 
 J. Tomasi, M. Cossi, J. M. Millam, M. Klene, C. Adamo, R. Cammi, 
 J. W. Ochterski, R. L. Martin, K. Morokuma, O. Farkas, 
 J. B. Foresman, and D. J. Fox, Gaussian, Inc., Wallingford CT, 2016.
 
 ******************************************
 Gaussian 16:  ES64L-G16RevB.01 20-Dec-2017
                21-Feb-2022 
 ******************************************
 %nproc=28
 Will use up to   28 processors via shared memory.
 %mem=120GB
 %chk=hoono_r4_1p178656.chk
 ---------------------------------------
 #p freq mp2/aug-cc-pvtz density=current
 ---------------------------------------
 1/10=4,30=1,38=1/1,3;
 2/12=2,17=6,18=5,40=1/2;
 3/5=16,6=1,7=10,11=9,25=1,30=1,71=2,140=1/1,2,3;
 4//1;
 5/5=2,38=5,98=1/2;
 8/6=3,8=1,10=1,19=11,30=-1/1;
 9/15=3,16=-3/6;
 11/6=1,8=1,15=11,17=12,24=-1,27=1,28=-2,29=300,32=6,42=3/1,2,10;
 10/6=2,21=1/2;
 8/6=4,8=1,10=1,19=11,30=-1/11,4;
 10/5=1,20=4/2;
 11/12=2,14=11,16=1,17=2,28=-2,42=3,76=2/2,10,12;
 6/7=2,8=2,9=2,10=2,22=-1/1;
 7/8=1,10=1,12=2,25=1,44=2/1,2,3,16;
 1/10=4,30=1/3;
 99//99;
 Leave Link    1 at Mon Feb 21 20:24:04 2022, MaxMem= 16106127360 cpu:               2.3 elap:               0.1
 (Enter /sw/contrib/gaussian/g16/B01/g16/l101.exe)
 -----
 title
 -----
 Symbolic Z-matrix:
 Charge =  0 Multiplicity = 1
 H
 O                    1    r1
 O                    2    r2       1    a1
 N                    3    r3       2    a2       1    d1       0
 O                    4    r4       3    a3       2    d2       0
       Variables:
  r1                    0.96898                  
  r2                    1.45492                  
  r3                    1.45878                  
  r4                    1.17866                  
  a1                   97.59495                  
  a2                  102.29752                  
  a3                  109.06955                  
  d1                  180.                       
  d2                  180.                       
 
 ITRead=  0  0  0  0  0
 MicOpt= -1 -1 -1 -1 -1
 NAtoms=      5 NQM=        5 NQMF=       0 NMMI=      0 NMMIF=      0
                NMic=       0 NMicF=      0.
                    Isotopes and Nuclear Properties:
 (Nuclear quadrupole moments (NQMom) in fm**2, nuclear magnetic moments (NMagM)
  in nuclear magnetons)

  Atom         1           2           3           4           5
 IAtWgt=           1          16          16          14          16
 AtmWgt=   1.0078250  15.9949146  15.9949146  14.0030740  15.9949146
 NucSpn=           1           0           0           2           0
 AtZEff=  -0.0000000  -0.0000000  -0.0000000  -0.0000000  -0.0000000
 NQMom=    0.0000000   0.0000000   0.0000000   2.0440000   0.0000000
 NMagM=    2.7928460   0.0000000   0.0000000   0.4037610   0.0000000
 AtZNuc=   1.0000000   8.0000000   8.0000000   7.0000000   8.0000000
 Leave Link  101 at Mon Feb 21 20:24:04 2022, MaxMem= 16106127360 cpu:               3.4 elap:               0.1
 (Enter /sw/contrib/gaussian/g16/B01/g16/l103.exe)

 GradGradGradGradGradGradGradGradGradGradGradGradGradGradGradGradGradGrad
 Berny optimization.
 Initialization pass.
                       ----------------------------
                       !    Initial Parameters    !
                       ! (Angstroms and Degrees)  !
 ----------------------                            ----------------------
 !      Name          Value   Derivative information (Atomic Units)     !
 ------------------------------------------------------------------------
 !       r1          0.969    calculate D2E/DX2 analytically            !
 !       r2          1.4549   calculate D2E/DX2 analytically            !
 !       r3          1.4588   calculate D2E/DX2 analytically            !
 !       r4          1.1787   calculate D2E/DX2 analytically            !
 !       a1         97.5949   calculate D2E/DX2 analytically            !
 !       a2        102.2975   calculate D2E/DX2 analytically            !
 !       a3        109.0696   calculate D2E/DX2 analytically            !
 !       d1        180.0      calculate D2E/DX2 analytically            !
 !       d2        180.0      calculate D2E/DX2 analytically            !
 ------------------------------------------------------------------------
 Trust Radius=3.00D-01 FncErr=1.00D-07 GrdErr=1.00D-07 EigMax=2.50D+02 EigMin=1.00D-04
 Number of steps in this run=      2 maximum allowed number of steps=      2.
 GradGradGradGradGradGradGradGradGradGradGradGradGradGradGradGradGradGrad

 Leave Link  103 at Mon Feb 21 20:24:04 2022, MaxMem= 16106127360 cpu:               1.0 elap:               0.1
 (Enter /sw/contrib/gaussian/g16/B01/g16/l202.exe)
                          Input orientation:                          
 ---------------------------------------------------------------------
 Center     Atomic      Atomic             Coordinates (Angstroms)
 Number     Number       Type             X           Y           Z
 ---------------------------------------------------------------------
      1          1           0        0.000000    0.000000    0.000000
      2          8           0        0.000000    0.000000    0.968976
      3          8           0        1.442156    0.000000    1.161271
      4          7           0        1.561752    0.000000    2.615144
      5          8           0        2.703547    0.000000    2.907606
 ---------------------------------------------------------------------
                    Distance matrix (angstroms):
                    1          2          3          4          5
     1  H    0.000000
     2  O    0.968976   0.000000
     3  O    1.851584   1.454919   0.000000
     4  N    3.045989   2.269127   1.458784   0.000000
     5  O    3.970307   3.326778   2.154250   1.178656   0.000000
 Stoichiometry    HNO3
 Framework group  CS[SG(HNO3)]
 Deg. of freedom     7
 Full point group                 CS      NOp   2
 Largest Abelian subgroup         CS      NOp   2
 Largest concise Abelian subgroup C1      NOp   1
                         Standard orientation:                         
 ---------------------------------------------------------------------
 Center     Atomic      Atomic             Coordinates (Angstroms)
 Number     Number       Type             X           Y           Z
 ---------------------------------------------------------------------
      1          1           0        1.546155    1.692022    0.000000
      2          8           0        1.453912    0.727447    0.000000
      3          8           0        0.000000    0.673313    0.000000
      4          7           0       -0.257456   -0.762573   -0.000000
      5          8           0       -1.421907   -0.945012   -0.000000
 ---------------------------------------------------------------------
 Rotational constants (GHZ):          54.9012879           4.9924941           4.5763407
 Leave Link  202 at Mon Feb 21 20:24:04 2022, MaxMem= 16106127360 cpu:               0.4 elap:               0.0
 (Enter /sw/contrib/gaussian/g16/B01/g16/l301.exe)
 Standard basis: Aug-CC-pVTZ (5D, 7F)
 Ernie: Thresh=  0.10000D-02 Tol=  0.10000D-05 Strict=F.
 Ernie:  12 primitive shells out of 131 were deleted.
 There are   166 symmetry adapted cartesian basis functions of A'  symmetry.
 There are    79 symmetry adapted cartesian basis functions of A"  symmetry.
 There are   136 symmetry adapted basis functions of A'  symmetry.
 There are    71 symmetry adapted basis functions of A"  symmetry.
   207 basis functions,   315 primitive gaussians,   245 cartesian basis functions
    16 alpha electrons       16 beta electrons
       nuclear repulsion energy       116.6327815351 Hartrees.
 IExCor=    0 DFT=F Ex=HF Corr=None ExCW=0 ScaHFX=  1.000000
 ScaDFX=  1.000000  1.000000  1.000000  1.000000 ScalE2=  1.000000  1.000000
 IRadAn=      5 IRanWt=     -1 IRanGd=            0 ICorTp=0 IEmpDi=  4
 NAtoms=    5 NActive=    5 NUniq=    5 SFac= 1.00D+00 NAtFMM=   60 NAOKFM=F Big=F
 Integral buffers will be    131072 words long.
 Raffenetti 1 integral format.
 Two-electron integral symmetry is turned on.
 Leave Link  301 at Mon Feb 21 20:24:04 2022, MaxMem= 16106127360 cpu:               1.7 elap:               0.1
 (Enter /sw/contrib/gaussian/g16/B01/g16/l302.exe)
 NPDir=0 NMtPBC=     1 NCelOv=     1 NCel=       1 NClECP=     1 NCelD=      1
         NCelK=      1 NCelE2=     1 NClLst=     1 CellRange=     0.0.
 One-electron integrals computed using PRISM.
 One-electron integral symmetry used in STVInt
 NBasis=   207 RedAO= T EigKep=  1.83D-04  NBF=   136    71
 NBsUse=   207 1.00D-06 EigRej= -1.00D+00 NBFU=   136    71
 Leave Link  302 at Mon Feb 21 20:24:05 2022, MaxMem= 16106127360 cpu:               4.6 elap:               0.2
 (Enter /sw/contrib/gaussian/g16/B01/g16/l303.exe)
 DipDrv:  MaxL=1.
 Leave Link  303 at Mon Feb 21 20:24:05 2022, MaxMem= 16106127360 cpu:               0.9 elap:               0.1
 (Enter /sw/contrib/gaussian/g16/B01/g16/l401.exe)
 ExpMin= 2.53D-02 ExpMax= 1.53D+04 ExpMxC= 5.22D+02 IAcc=3 IRadAn=         5 AccDes= 0.00D+00
 Harris functional with IExCor=  205 and IRadAn=       5 diagonalized for initial guess.
 HarFok:  IExCor=  205 AccDes= 0.00D+00 IRadAn=         5 IDoV= 1 UseB2=F ITyADJ=14
 ICtDFT=  3500011 ScaDFX=  1.000000  1.000000  1.000000  1.000000
 FoFCou: FMM=F IPFlag=           0 FMFlag=      100000 FMFlg1=           0
         NFxFlg=           0 DoJE=T BraDBF=F KetDBF=T FulRan=T
         wScrn=  0.000000 ICntrl=       500 IOpCl=  0 I1Cent=   200000004 NGrid=           0
         NMat0=    1 NMatS0=      1 NMatT0=    0 NMatD0=    1 NMtDS0=    0 NMtDT0=    0
 Petite list used in FoFCou.
 Harris En= -279.628740037373    
 JPrj=0 DoOrth=F DoCkMO=F.
 Initial guess orbital symmetries:
       Occupied  (A') (A') (A') (A') (A') (A') (A') (A') (A') (A')
                 (A") (A') (A') (A") (A") (A')
       Virtual   (A") (A') (A') (A') (A') (A') (A") (A') (A') (A')
                 (A") (A') (A") (A') (A') (A") (A') (A") (A') (A')
                 (A') (A') (A') (A') (A') (A") (A') (A") (A') (A')
                 (A") (A') (A") (A') (A') (A") (A') (A") (A') (A')
                 (A") (A') (A") (A') (A") (A') (A') (A') (A") (A")
                 (A') (A') (A') (A') (A") (A') (A") (A') (A") (A')
                 (A') (A') (A") (A') (A') (A") (A') (A") (A') (A')
                 (A") (A') (A') (A") (A") (A') (A') (A") (A') (A')
                 (A') (A") (A') (A") (A') (A") (A') (A") (A') (A')
                 (A') (A") (A') (A") (A') (A") (A") (A') (A') (A')
                 (A") (A') (A") (A') (A') (A') (A') (A") (A") (A')
                 (A") (A') (A') (A') (A") (A') (A') (A') (A") (A')
                 (A") (A') (A') (A") (A") (A') (A") (A') (A") (A')
                 (A') (A') (A') (A") (A") (A') (A") (A') (A') (A')
                 (A') (A") (A") (A') (A') (A") (A') (A') (A') (A')
                 (A") (A') (A') (A") (A') (A") (A') (A") (A') (A")
                 (A') (A") (A') (A") (A') (A") (A") (A") (A') (A')
                 (A") (A') (A") (A') (A") (A') (A") (A") (A') (A')
                 (A') (A') (A') (A') (A') (A') (A') (A') (A') (A')
                 (A')
 The electronic state of the initial guess is 1-A'.
 Leave Link  401 at Mon Feb 21 20:24:05 2022, MaxMem= 16106127360 cpu:               6.9 elap:               0.3
 (Enter /sw/contrib/gaussian/g16/B01/g16/l502.exe)
 Keep R1 ints in memory in symmetry-blocked form, NReq=348887737.
 FoFCou: FMM=F IPFlag=           0 FMFlag=           0 FMFlg1=           0
         NFxFlg=           0 DoJE=F BraDBF=F KetDBF=F FulRan=T
         wScrn=  0.000000 ICntrl=       600 IOpCl=  0 I1Cent=           0 NGrid=           0
         NMat0=    1 NMatS0=  21528 NMatT0=    0 NMatD0=    1 NMtDS0=    0 NMtDT0=    0
 Petite list used in FoFCou.
 Closed shell SCF:
 Using DIIS extrapolation, IDIIS=  1040.
 NGot= 16106127360 LenX= 15988850015 LenY= 15988789549
 Requested convergence on RMS density matrix=1.00D-08 within 128 cycles.
 Requested convergence on MAX density matrix=1.00D-06.
 Requested convergence on             energy=1.00D-06.
 No special actions if energy rises.

 Cycle   1  Pass 1  IDiag  1:
 E= -279.367382915045    
 DIIS: error= 2.67D-02 at cycle   1 NSaved=   1.
 NSaved= 1 IEnMin= 1 EnMin= -279.367382915045     IErMin= 1 ErrMin= 2.67D-02
 ErrMax= 2.67D-02  0.00D+00 EMaxC= 1.00D-01 BMatC= 4.40D-01 BMatP= 4.40D-01
 IDIUse=3 WtCom= 7.33D-01 WtEn= 2.67D-01
 Coeff-Com:  0.100D+01
 Coeff-En:   0.100D+01
 Coeff:      0.100D+01
 Gap=     0.510 Goal=   None    Shift=    0.000
 GapD=    0.510 DampG=2.000 DampE=0.500 DampFc=1.0000 IDamp=-1.
 RMSDP=1.63D-03 MaxDP=9.96D-02              OVMax= 1.16D-01

 Cycle   2  Pass 1  IDiag  1:
 E= -279.448564407532     Delta-E=       -0.081181492487 Rises=F Damp=F
 DIIS: error= 1.82D-02 at cycle   2 NSaved=   2.
 NSaved= 2 IEnMin= 2 EnMin= -279.448564407532     IErMin= 2 ErrMin= 1.82D-02
 ErrMax= 1.82D-02  0.00D+00 EMaxC= 1.00D-01 BMatC= 7.52D-02 BMatP= 4.40D-01
 IDIUse=3 WtCom= 8.18D-01 WtEn= 1.82D-01
 Coeff-Com:  0.201D+00 0.799D+00
 Coeff-En:   0.191D-01 0.981D+00
 Coeff:      0.168D+00 0.832D+00
 Gap=     0.533 Goal=   None    Shift=    0.000
 RMSDP=9.14D-04 MaxDP=3.78D-02 DE=-8.12D-02 OVMax= 7.02D-02

 Cycle   3  Pass 1  IDiag  1:
 E= -279.479517846362     Delta-E=       -0.030953438831 Rises=F Damp=F
 DIIS: error= 1.05D-02 at cycle   3 NSaved=   3.
 NSaved= 3 IEnMin= 3 EnMin= -279.479517846362     IErMin= 3 ErrMin= 1.05D-02
 ErrMax= 1.05D-02  0.00D+00 EMaxC= 1.00D-01 BMatC= 2.94D-02 BMatP= 7.52D-02
 IDIUse=3 WtCom= 8.95D-01 WtEn= 1.05D-01
 Coeff-Com: -0.332D-01 0.375D+00 0.658D+00
 Coeff-En:   0.000D+00 0.237D+00 0.763D+00
 Coeff:     -0.297D-01 0.361D+00 0.669D+00
 Gap=     0.512 Goal=   None    Shift=    0.000
 RMSDP=3.82D-04 MaxDP=1.58D-02 DE=-3.10D-02 OVMax= 3.94D-02

 Cycle   4  Pass 1  IDiag  1:
 E= -279.499129463432     Delta-E=       -0.019611617070 Rises=F Damp=F
 DIIS: error= 1.31D-03 at cycle   4 NSaved=   4.
 NSaved= 4 IEnMin= 4 EnMin= -279.499129463432     IErMin= 4 ErrMin= 1.31D-03
 ErrMax= 1.31D-03  0.00D+00 EMaxC= 1.00D-01 BMatC= 5.06D-04 BMatP= 2.94D-02
 IDIUse=3 WtCom= 9.87D-01 WtEn= 1.31D-02
 Coeff-Com: -0.117D-01 0.555D-01 0.157D+00 0.799D+00
 Coeff-En:   0.000D+00 0.000D+00 0.000D+00 0.100D+01
 Coeff:     -0.116D-01 0.548D-01 0.155D+00 0.801D+00
 Gap=     0.503 Goal=   None    Shift=    0.000
 RMSDP=9.15D-05 MaxDP=2.78D-03 DE=-1.96D-02 OVMax= 1.13D-02

 Cycle   5  Pass 1  IDiag  1:
 E= -279.499828541097     Delta-E=       -0.000699077664 Rises=F Damp=F
 DIIS: error= 7.46D-04 at cycle   5 NSaved=   5.
 NSaved= 5 IEnMin= 5 EnMin= -279.499828541097     IErMin= 5 ErrMin= 7.46D-04
 ErrMax= 7.46D-04  0.00D+00 EMaxC= 1.00D-01 BMatC= 8.94D-05 BMatP= 5.06D-04
 IDIUse=3 WtCom= 9.93D-01 WtEn= 7.46D-03
 Coeff-Com:  0.623D-02-0.723D-01-0.119D+00 0.177D-01 0.117D+01
 Coeff-En:   0.000D+00 0.000D+00 0.000D+00 0.000D+00 0.100D+01
 Coeff:      0.619D-02-0.717D-01-0.118D+00 0.176D-01 0.117D+01
 Gap=     0.503 Goal=   None    Shift=    0.000
 RMSDP=7.77D-05 MaxDP=2.15D-03 DE=-6.99D-04 OVMax= 1.14D-02

 Cycle   6  Pass 1  IDiag  1:
 E= -279.500154978154     Delta-E=       -0.000326437057 Rises=F Damp=F
 DIIS: error= 2.92D-04 at cycle   6 NSaved=   6.
 NSaved= 6 IEnMin= 6 EnMin= -279.500154978154     IErMin= 6 ErrMin= 2.92D-04
 ErrMax= 2.92D-04  0.00D+00 EMaxC= 1.00D-01 BMatC= 1.72D-05 BMatP= 8.94D-05
 IDIUse=3 WtCom= 9.97D-01 WtEn= 2.92D-03
 Coeff-Com:  0.447D-03 0.347D-02 0.792D-02-0.132D+00-0.256D+00 0.138D+01
 Coeff-En:   0.000D+00 0.000D+00 0.000D+00 0.000D+00 0.000D+00 0.100D+01
 Coeff:      0.446D-03 0.346D-02 0.790D-02-0.131D+00-0.256D+00 0.138D+01
 Gap=     0.504 Goal=   None    Shift=    0.000
 RMSDP=4.65D-05 MaxDP=1.28D-03 DE=-3.26D-04 OVMax= 5.74D-03

 Cycle   7  Pass 1  IDiag  1:
 E= -279.500230723641     Delta-E=       -0.000075745487 Rises=F Damp=F
 DIIS: error= 1.22D-04 at cycle   7 NSaved=   7.
 NSaved= 7 IEnMin= 7 EnMin= -279.500230723641     IErMin= 7 ErrMin= 1.22D-04
 ErrMax= 1.22D-04  0.00D+00 EMaxC= 1.00D-01 BMatC= 4.27D-06 BMatP= 1.72D-05
 IDIUse=3 WtCom= 9.99D-01 WtEn= 1.22D-03
 Coeff-Com: -0.962D-03 0.133D-01 0.264D-01-0.201D-01-0.276D+00 0.350D+00
 Coeff-Com:  0.908D+00
 Coeff-En:   0.000D+00 0.000D+00 0.000D+00 0.000D+00 0.000D+00 0.000D+00
 Coeff-En:   0.100D+01
 Coeff:     -0.961D-03 0.133D-01 0.264D-01-0.201D-01-0.276D+00 0.349D+00
 Coeff:      0.908D+00
 Gap=     0.504 Goal=   None    Shift=    0.000
 RMSDP=1.33D-05 MaxDP=3.81D-04 DE=-7.57D-05 OVMax= 1.57D-03

 Cycle   8  Pass 1  IDiag  1:
 E= -279.500239499466     Delta-E=       -0.000008775825 Rises=F Damp=F
 DIIS: error= 6.03D-05 at cycle   8 NSaved=   8.
 NSaved= 8 IEnMin= 8 EnMin= -279.500239499466     IErMin= 8 ErrMin= 6.03D-05
 ErrMax= 6.03D-05  0.00D+00 EMaxC= 1.00D-01 BMatC= 6.43D-07 BMatP= 4.27D-06
 IDIUse=1 WtCom= 1.00D+00 WtEn= 0.00D+00
 Coeff-Com: -0.447D-03 0.329D-02 0.741D-02 0.277D-01-0.381D-01-0.207D+00
 Coeff-Com:  0.215D+00 0.992D+00
 Coeff:     -0.447D-03 0.329D-02 0.741D-02 0.277D-01-0.381D-01-0.207D+00
 Coeff:      0.215D+00 0.992D+00
 Gap=     0.503 Goal=   None    Shift=    0.000
 RMSDP=6.80D-06 MaxDP=2.04D-04 DE=-8.78D-06 OVMax= 7.31D-04

 Cycle   9  Pass 1  IDiag  1:
 E= -279.500241297221     Delta-E=       -0.000001797754 Rises=F Damp=F
 DIIS: error= 1.70D-05 at cycle   9 NSaved=   9.
 NSaved= 9 IEnMin= 9 EnMin= -279.500241297221     IErMin= 9 ErrMin= 1.70D-05
 ErrMax= 1.70D-05  0.00D+00 EMaxC= 1.00D-01 BMatC= 7.74D-08 BMatP= 6.43D-07
 IDIUse=1 WtCom= 1.00D+00 WtEn= 0.00D+00
 Coeff-Com:  0.133D-03-0.178D-02-0.321D-02-0.257D-02 0.353D-01 0.275D-02
 Coeff-Com: -0.186D+00-0.948D-01 0.125D+01
 Coeff:      0.133D-03-0.178D-02-0.321D-02-0.257D-02 0.353D-01 0.275D-02
 Coeff:     -0.186D+00-0.948D-01 0.125D+01
 Gap=     0.503 Goal=   None    Shift=    0.000
 RMSDP=2.05D-06 MaxDP=7.16D-05 DE=-1.80D-06 OVMax= 1.91D-04

 Cycle  10  Pass 1  IDiag  1:
 E= -279.500241477398     Delta-E=       -0.000000180178 Rises=F Damp=F
 DIIS: error= 4.31D-06 at cycle  10 NSaved=  10.
 NSaved=10 IEnMin=10 EnMin= -279.500241477398     IErMin=10 ErrMin= 4.31D-06
 ErrMax= 4.31D-06  0.00D+00 EMaxC= 1.00D-01 BMatC= 6.20D-09 BMatP= 7.74D-08
 IDIUse=1 WtCom= 1.00D+00 WtEn= 0.00D+00
 Coeff-Com:  0.282D-04-0.199D-03-0.236D-03-0.274D-02 0.745D-03 0.203D-01
 Coeff-Com: -0.124D-01-0.692D-01-0.106D+00 0.117D+01
 Coeff:      0.282D-04-0.199D-03-0.236D-03-0.274D-02 0.745D-03 0.203D-01
 Coeff:     -0.124D-01-0.692D-01-0.106D+00 0.117D+01
 Gap=     0.503 Goal=   None    Shift=    0.000
 RMSDP=5.38D-07 MaxDP=2.26D-05 DE=-1.80D-07 OVMax= 4.71D-05

 Cycle  11  Pass 1  IDiag  1:
 E= -279.500241491924     Delta-E=       -0.000000014525 Rises=F Damp=F
 DIIS: error= 2.20D-06 at cycle  11 NSaved=  11.
 NSaved=11 IEnMin=11 EnMin= -279.500241491924     IErMin=11 ErrMin= 2.20D-06
 ErrMax= 2.20D-06  0.00D+00 EMaxC= 1.00D-01 BMatC= 7.60D-10 BMatP= 6.20D-09
 IDIUse=1 WtCom= 1.00D+00 WtEn= 0.00D+00
 Coeff-Com: -0.227D-04 0.254D-03 0.510D-03 0.595D-03-0.443D-02-0.411D-02
 Coeff-Com:  0.246D-01 0.298D-01-0.143D+00-0.178D+00 0.127D+01
 Coeff:     -0.227D-04 0.254D-03 0.510D-03 0.595D-03-0.443D-02-0.411D-02
 Coeff:      0.246D-01 0.298D-01-0.143D+00-0.178D+00 0.127D+01
 Gap=     0.503 Goal=   None    Shift=    0.000
 RMSDP=1.94D-07 MaxDP=7.12D-06 DE=-1.45D-08 OVMax= 1.87D-05

 Cycle  12  Pass 1  IDiag  1:
 E= -279.500241494065     Delta-E=       -0.000000002141 Rises=F Damp=F
 DIIS: error= 6.21D-07 at cycle  12 NSaved=  12.
 NSaved=12 IEnMin=12 EnMin= -279.500241494065     IErMin=12 ErrMin= 6.21D-07
 ErrMax= 6.21D-07  0.00D+00 EMaxC= 1.00D-01 BMatC= 8.26D-11 BMatP= 7.60D-10
 IDIUse=1 WtCom= 1.00D+00 WtEn= 0.00D+00
 Coeff-Com:  0.149D-05-0.323D-04-0.696D-04 0.198D-03 0.117D-02-0.250D-02
 Coeff-Com: -0.440D-02 0.596D-02 0.435D-01-0.124D+00-0.255D+00 0.134D+01
 Coeff:      0.149D-05-0.323D-04-0.696D-04 0.198D-03 0.117D-02-0.250D-02
 Coeff:     -0.440D-02 0.596D-02 0.435D-01-0.124D+00-0.255D+00 0.134D+01
 Gap=     0.503 Goal=   None    Shift=    0.000
 RMSDP=7.78D-08 MaxDP=3.05D-06 DE=-2.14D-09 OVMax= 7.13D-06

 Cycle  13  Pass 1  IDiag  1:
 E= -279.500241494331     Delta-E=       -0.000000000266 Rises=F Damp=F
 DIIS: error= 1.84D-07 at cycle  13 NSaved=  13.
 NSaved=13 IEnMin=13 EnMin= -279.500241494331     IErMin=13 ErrMin= 1.84D-07
 ErrMax= 1.84D-07  0.00D+00 EMaxC= 1.00D-01 BMatC= 4.62D-12 BMatP= 8.26D-11
 IDIUse=1 WtCom= 1.00D+00 WtEn= 0.00D+00
 Coeff-Com:  0.134D-05-0.144D-04-0.233D-04-0.968D-04 0.124D-03 0.826D-03
 Coeff-Com: -0.107D-02-0.322D-02 0.764D-03 0.429D-01-0.444D-01-0.312D+00
 Coeff-Com:  0.132D+01
 Coeff:      0.134D-05-0.144D-04-0.233D-04-0.968D-04 0.124D-03 0.826D-03
 Coeff:     -0.107D-02-0.322D-02 0.764D-03 0.429D-01-0.444D-01-0.312D+00
 Coeff:      0.132D+01
 Gap=     0.503 Goal=   None    Shift=    0.000
 RMSDP=2.04D-08 MaxDP=6.03D-07 DE=-2.66D-10 OVMax= 1.64D-06

 Cycle  14  Pass 1  IDiag  1:
 E= -279.500241494345     Delta-E=       -0.000000000014 Rises=F Damp=F
 DIIS: error= 2.60D-08 at cycle  14 NSaved=  14.
 NSaved=14 IEnMin=14 EnMin= -279.500241494345     IErMin=14 ErrMin= 2.60D-08
 ErrMax= 2.60D-08  0.00D+00 EMaxC= 1.00D-01 BMatC= 2.25D-13 BMatP= 4.62D-12
 IDIUse=1 WtCom= 1.00D+00 WtEn= 0.00D+00
 Coeff-Com: -0.197D-06 0.320D-05 0.572D-05 0.455D-05-0.852D-04 0.496D-04
 Coeff-Com:  0.309D-03 0.201D-03-0.251D-02 0.179D-02 0.164D-01-0.260D-01
 Coeff-Com: -0.196D+00 0.121D+01
 Coeff:     -0.197D-06 0.320D-05 0.572D-05 0.455D-05-0.852D-04 0.496D-04
 Coeff:      0.309D-03 0.201D-03-0.251D-02 0.179D-02 0.164D-01-0.260D-01
 Coeff:     -0.196D+00 0.121D+01
 Gap=     0.503 Goal=   None    Shift=    0.000
 RMSDP=4.01D-09 MaxDP=9.71D-08 DE=-1.41D-11 OVMax= 3.63D-07

 SCF Done:  E(RHF) =  -279.500241494     A.U. after   14 cycles
            NFock= 14  Conv=0.40D-08     -V/T= 2.0025
 KE= 2.788072608548D+02 PE=-8.945620358362D+02 EE= 2.196217519519D+02
 Leave Link  502 at Mon Feb 21 20:24:09 2022, MaxMem= 16106127360 cpu:              56.0 elap:               3.7
 (Enter /sw/contrib/gaussian/g16/B01/g16/l801.exe)
 ExpMin= 2.53D-02 ExpMax= 1.53D+04 ExpMxC= 5.22D+02 IAcc=3 IRadAn=         5 AccDes= 0.00D+00
 HarFok:  IExCor=  205 AccDes= 0.00D+00 IRadAn=         5 IDoV=-2 UseB2=F ITyADJ=14
 ICtDFT= 12500011 ScaDFX=  1.000000  1.000000  1.000000  1.000000
 Largest valence mixing into a core orbital is  2.09D-04
 Largest core mixing into a valence orbital is  3.66D-05
 Range of M.O.s used for correlation:     5   207
 NBasis=   207 NAE=    16 NBE=    16 NFC=     4 NFV=     0
 NROrb=    203 NOA=    12 NOB=    12 NVA=   191 NVB=   191

 **** Warning!!: The largest alpha MO coefficient is  0.17669655D+02

 Leave Link  801 at Mon Feb 21 20:24:09 2022, MaxMem= 16106127360 cpu:               2.2 elap:               0.1
 (Enter /sw/contrib/gaussian/g16/B01/g16/l906.exe)
 Frozen-core derivative calculation, NFC=   4 NFV=   0.
 FulOut=F Deriv=T AODrv=T NAtomX=     5
   MMem=           0  MDisk=          12 MDiskD=          12
  W3Min=      811440 MinDsk=     2425030 NBas6D=         245
 NBas2D=       30762    NTT=       30135    LW2=     7400000
    MDV= 16105574311 MDiskM=      328644 NBas2p=       30702
 Disk-based method using ON**2 memory for 12 occupieds at a time.
 Permanent disk used for amplitudes=    11516536 words.
 Estimated scratch disk usage=   321251614 words.
 IMap=   1   2   3   4   5   6   7   8   9  10  11  12  13  14  15  16
 Actual    scratch disk usage=   310331678 words.
 JobTyp=1 Pass  1:  I=   5 to  16 NPSUse= 28 ParTrn=T ParDer=T DoDerP=T.
 (rs|ai) integrals will be sorted in core.
 Spin components of T(2) and E(2):
     alpha-alpha T2 =       0.3419072002D-01 E2=     -0.1225782958D+00
     alpha-beta  T2 =       0.1877726123D+00 E2=     -0.7012531623D+00
     beta-beta   T2 =       0.3419072002D-01 E2=     -0.1225782958D+00
 The integrals were generated   1 times.
 ANorm=    0.1120782786D+01
 E2 =    -0.9464097538D+00 EUMP2 =    -0.28044665124817D+03
 Leave Link  906 at Mon Feb 21 20:25:46 2022, MaxMem= 16106127360 cpu:            2710.9 elap:              97.0
 (Enter /sw/contrib/gaussian/g16/B01/g16/l1101.exe)
 Using compressed Sx but separate Hx and Fx, NAtomX=     5.
 Will process      6 centers per pass.
 Leave Link 1101 at Mon Feb 21 20:25:46 2022, MaxMem= 16106127360 cpu:               7.6 elap:               0.3
 (Enter /sw/contrib/gaussian/g16/B01/g16/l1102.exe)
 Leave Link 1102 at Mon Feb 21 20:25:46 2022, MaxMem= 16106127360 cpu:               0.5 elap:               0.0
 (Enter /sw/contrib/gaussian/g16/B01/g16/l1110.exe)
 Forming Gx(P) for the SCF density, NAtomX=     5.
 Integral derivatives from FoFJK, PRISM(SPDF).
 Do as many integral derivatives as possible in FoFJK.
 G2DrvN: MDV=   16106126844.
 G2DrvN: will do     6 centers at a time, making    1 passes.
 Calling FoFCou, ICntrl=  3107 FMM=F I1Cent=   0 AccDes= 0.00D+00.
 FoFJK:  IHMeth= 1 ICntrl=    3107 DoSepK=F KAlg= 0 I1Cent=           0 FoldK=F
 IRaf=         0 NMat=       1 IRICut=       1 DoRegI=T DoRafI=F ISym2E= 1 IDoP0=0 IntGTp=1.
 FoFCou: FMM=F IPFlag=           0 FMFlag=      100000 FMFlg1=           0
         NFxFlg=           0 DoJE=F BraDBF=F KetDBF=F FulRan=T
         wScrn=  0.000000 ICntrl=      3107 IOpCl=  0 I1Cent=           0 NGrid=           0
         NMat0=    1 NMatS0=      1 NMatT0=    0 NMatD0=    1 NMtDS0=    0 NMtDT0=    0
 Petite list used in FoFCou.
 End of G2Drv F.D. properties file   721 does not exist.
 End of G2Drv F.D. properties file   722 does not exist.
 End of G2Drv F.D. properties file   788 does not exist.
 Leave Link 1110 at Mon Feb 21 20:25:49 2022, MaxMem= 16106127360 cpu:              82.5 elap:               3.0
 (Enter /sw/contrib/gaussian/g16/B01/g16/l1002.exe)
 Minotr:  Closed shell wavefunction.
          IDoAtm=11111
          Frozen-core window.
          Direct CPHF calculation.
          Differentiating once with respect to electric field.
                with respect to dipole field.
          Differentiating once with respect to nuclear coordinates.
          Requested convergence is 1.0D-08 RMS, and 1.0D-07 maximum.
          Secondary convergence is 1.0D-12 RMS, and 1.0D-12 maximum.
          NewPWx=T KeepS1=T KeepF1=T KeepIn=T MapXYZ=F SortEE=F KeepMc=T.
 Keep R1 ints in memory in symmetry-blocked form, NReq=348888983.
 FoFCou: FMM=F IPFlag=           0 FMFlag=           0 FMFlg1=           0
         NFxFlg=           0 DoJE=F BraDBF=F KetDBF=F FulRan=T
         wScrn=  0.000000 ICntrl=       600 IOpCl=  0 I1Cent=           0 NGrid=           0
         NMat0=    1 NMatS0=  21528 NMatT0=    0 NMatD0=    1 NMtDS0=    0 NMtDT0=    0
 Petite list used in FoFCou.
          MDV=   16106127360 using IRadAn=       1.
          Solving linear equations simultaneously, MaxMat=       0.
          There are    18 degrees of freedom in the 1st order CPHF.  IDoFFX=6 NUNeed=    18.
     15 vectors produced by pass  0 Test12= 1.70D-14 5.56D-09 XBig12= 8.37D+00 1.04D+00.
 AX will form    15 AO Fock derivatives at one time.
     15 vectors produced by pass  1 Test12= 1.70D-14 5.56D-09 XBig12= 1.38D+00 2.66D-01.
     15 vectors produced by pass  2 Test12= 1.70D-14 5.56D-09 XBig12= 1.45D-01 1.01D-01.
     15 vectors produced by pass  3 Test12= 1.70D-14 5.56D-09 XBig12= 5.12D-03 1.16D-02.
     15 vectors produced by pass  4 Test12= 1.70D-14 5.56D-09 XBig12= 1.05D-04 2.03D-03.
     15 vectors produced by pass  5 Test12= 1.70D-14 5.56D-09 XBig12= 1.47D-06 1.79D-04.
     15 vectors produced by pass  6 Test12= 1.70D-14 5.56D-09 XBig12= 1.16D-08 1.51D-05.
     12 vectors produced by pass  7 Test12= 1.70D-14 5.56D-09 XBig12= 8.58D-11 1.40D-06.
      3 vectors produced by pass  8 Test12= 1.70D-14 5.56D-09 XBig12= 6.10D-13 1.22D-07.
      2 vectors produced by pass  9 Test12= 1.70D-14 5.56D-09 XBig12= 4.13D-15 9.54D-09.
 InvSVY:  IOpt=1 It=  1 EMax= 8.88D-16
 Solved reduced A of dimension   122 with    15 vectors.
 FullF1:  Do perturbations      1 to      18.
 Saving first derivative matrices.
 End of Minotr F.D. properties file   721 does not exist.
 End of Minotr F.D. properties file   722 does not exist.
 End of Minotr F.D. properties file   788 does not exist.
 Leave Link 1002 at Mon Feb 21 20:25:52 2022, MaxMem= 16106127360 cpu:              80.3 elap:               2.9
 (Enter /sw/contrib/gaussian/g16/B01/g16/l811.exe)
 MDV= 16106127360.
 Form MO integral derivatives with frozen-active canonical formalism.
 MOERI=1 MOERIx=1 NAtoms=     5 NAtomX=     5.
 Discarding MO integrals.
 MO basis two electron integral derivatives will not be stored on disk.
 IAlg= 3 DoFC=T DoPWx=T Debug=F.
 Frozen-core window:  NFC=   4 NFV=   0.
 Reordered first order wavefunction length =     18678272
 In DefCFB: NBatch=  1 ICI= 16 ICA=191 LFMax= 96
            Large arrays: LIAPS=   619940160 LIARS=   288257200 words.
 In StABat: MaxSiz= 55 MinSiz= 25 NAtomB=  5
 DoIAMN: NPSUse= 28.
 Leave Link  811 at Mon Feb 21 20:27:14 2022, MaxMem= 16106127360 cpu:            2285.1 elap:              81.8
 (Enter /sw/contrib/gaussian/g16/B01/g16/l804.exe)
 Frozen-core window:  NFC=   4 NFV=   0.
 Closed-shell transformation, MDV= 16106127360 ITran=4 ISComp=1.
 Semi-Direct transformation.
 ModeAB=           2 MOrb=            16 LenV=   16104923065
 LASXX=     67341636 LTotXX=    67341636 LenRXX=    67341636
 LTotAB=    68301760 MaxLAS=    99807120 LenRXY=    99807120
 NonZer=   134683272 LenScr=   202817536 LnRSAI=           0
 LnScr1=           0 LExtra=           0 Total=    369966292
 MaxDsk=          -1 SrtSym=           F ITran=            4
 DoSDTr:  NPSUse= 28
 JobTyp=0 Pass  1:  I=   1 to  16.
 (rs|ai) integrals will be sorted in core.
 Complete sort for first half transformation.
 First half transformation complete.
 Begin second half transformation for I=  10.
 Begin second half transformation for I=  10.
 Complete sort for second half transformation.
 Second half transformation complete.
 Spin components of T(2) and E(2):
     alpha-alpha T2 =       0.3419072002D-01 E2=     -0.1225782958D+00
     alpha-beta  T2 =       0.1877726123D+00 E2=     -0.7012531623D+00
     beta-beta   T2 =       0.3419072002D-01 E2=     -0.1225782958D+00
 ANorm=    0.1585026216D+01
 E2 =    -0.9464097538D+00 EUMP2 =    -0.28044665124817D+03
 Leave Link  804 at Mon Feb 21 20:27:30 2022, MaxMem= 16106127360 cpu:             435.7 elap:              15.6
 (Enter /sw/contrib/gaussian/g16/B01/g16/l1002.exe)
 Minotr:  Closed shell wavefunction.
          Computing MP2/KS-MP2 derivatives.
          Using Z-Vector for PSCF gradient.
          Skipping F1 and S1 gradient terms here.
          IDoAtm=11111
          Frozen-core window.
          Using MO integrals in the linear equations.
          Forming densities via direct SCF.
          Differentiating once with respect to electric field.
                with respect to dipole field.
          Differentiating once with respect to nuclear coordinates.
          Using symmetry in CPHF.
          Requested convergence is 1.0D-10 RMS, and 1.0D-09 maximum.
          NewPWx=F KeepS1=T KeepF1=T KeepIn=T MapXYZ=F SortEE=F KeepMc=T.
          MDV=   16106127360 using IRadAn=       5.
          Solving linear equations separately, MaxMat=       0.
          There are     1 degrees of freedom in the 1st order CPHF.  IDoFFX=0 NUNeed=     1.
 FoFJK:  IHMeth= 1 ICntrl=       0 DoSepK=F KAlg= 0 I1Cent=           0 FoldK=F
 IRaf=         0 NMat=       1 IRICut=       1 DoRegI=T DoRafI=F ISym2E= 0 IDoP0=0 IntGTp=1.
 FoFCou: FMM=F IPFlag=           0 FMFlag=      100000 FMFlg1=           0
         NFxFlg=           0 DoJE=F BraDBF=F KetDBF=F FulRan=T
         wScrn=  0.000000 ICntrl=         0 IOpCl=  0 I1Cent=           0 NGrid=           0
         NMat0=    1 NMatS0=      1 NMatT0=    0 NMatD0=    1 NMtDS0=    0 NMtDT0=    0
 Symmetry not used in FoFCou.
 LinEq1:  Iter=  0 NonCon=     1 RMS=6.00D-03 Max=1.35D-01 NDo=     1
 LinEq1:  Iter=  1 NonCon=     1 RMS=1.93D-03 Max=3.93D-02 NDo=     1
 LinEq1:  Iter=  2 NonCon=     1 RMS=8.84D-04 Max=1.44D-02 NDo=     1
 LinEq1:  Iter=  3 NonCon=     1 RMS=3.96D-04 Max=8.19D-03 NDo=     1
 LinEq1:  Iter=  4 NonCon=     1 RMS=1.22D-04 Max=1.96D-03 NDo=     1
 LinEq1:  Iter=  5 NonCon=     1 RMS=4.81D-05 Max=7.67D-04 NDo=     1
 LinEq1:  Iter=  6 NonCon=     1 RMS=2.14D-05 Max=2.42D-04 NDo=     1
 LinEq1:  Iter=  7 NonCon=     1 RMS=8.60D-06 Max=1.63D-04 NDo=     1
 LinEq1:  Iter=  8 NonCon=     1 RMS=3.66D-06 Max=3.56D-05 NDo=     1
 LinEq1:  Iter=  9 NonCon=     1 RMS=9.93D-07 Max=1.35D-05 NDo=     1
 LinEq1:  Iter= 10 NonCon=     1 RMS=1.95D-07 Max=2.11D-06 NDo=     1
 LinEq1:  Iter= 11 NonCon=     1 RMS=3.60D-08 Max=3.71D-07 NDo=     1
 LinEq1:  Iter= 12 NonCon=     1 RMS=8.71D-09 Max=1.34D-07 NDo=     1
 LinEq1:  Iter= 13 NonCon=     1 RMS=1.58D-09 Max=2.69D-08 NDo=     1
 LinEq1:  Iter= 14 NonCon=     1 RMS=2.85D-10 Max=3.98D-09 NDo=     1
 LinEq1:  Iter= 15 NonCon=     0 RMS=5.05D-11 Max=5.58D-10 NDo=     1
 Linear equations converged to 1.000D-10 1.000D-09 after    15 iterations.
 End of Minotr F.D. properties file   721 does not exist.
 End of Minotr F.D. properties file   722 does not exist.
 End of Minotr F.D. properties file   788 does not exist.
 Leave Link 1002 at Mon Feb 21 20:27:32 2022, MaxMem= 16106127360 cpu:              70.0 elap:               2.6
 (Enter /sw/contrib/gaussian/g16/B01/g16/l1102.exe)
 Use density number 2.
 Symmetrizing basis deriv contribution to polar:
 IMax=3 JMax=2 DiffMx= 0.00D+00
 Leave Link 1102 at Mon Feb 21 20:27:32 2022, MaxMem= 16106127360 cpu:               0.6 elap:               0.0
 (Enter /sw/contrib/gaussian/g16/B01/g16/l1110.exe)
 Forming Gx(P) for generalized density number  2 NAtomX=     5.
 Integral derivatives from FoFJK, PRISM(SPDF).
 Do as many integral derivatives as possible in FoFJK.
 G2DrvN: MDV=   16106126844.
 G2DrvN: will do     6 centers at a time, making    1 passes.
 Calling FoFCou, ICntrl=  3107 FMM=F I1Cent=   0 AccDes= 0.00D+00.
 FoFJK:  IHMeth= 1 ICntrl=    3107 DoSepK=F KAlg= 0 I1Cent=           0 FoldK=F
 IRaf=         0 NMat=       1 IRICut=       1 DoRegI=T DoRafI=F ISym2E= 1 IDoP0=0 IntGTp=1.
 FoFCou: FMM=F IPFlag=           0 FMFlag=      100000 FMFlg1=           0
         NFxFlg=           0 DoJE=F BraDBF=F KetDBF=F FulRan=T
         wScrn=  0.000000 ICntrl=      3107 IOpCl=  0 I1Cent=           0 NGrid=           0
         NMat0=    1 NMatS0=      1 NMatT0=    0 NMatD0=    1 NMtDS0=    0 NMtDT0=    0
 Petite list used in FoFCou.
 End of G2Drv F.D. properties file   721 does not exist.
 End of G2Drv F.D. properties file   722 does not exist.
 End of G2Drv F.D. properties file   788 does not exist.
 Leave Link 1110 at Mon Feb 21 20:27:35 2022, MaxMem= 16106127360 cpu:              84.3 elap:               3.0
 (Enter /sw/contrib/gaussian/g16/B01/g16/l1112.exe)
 MP22nd: MDV=   16106127360
 This link is doing NAtomX=     5 total of    18 degrees of freedom.
 Using ON3 I/O method in MakUI.
 Frozen-core window:  NFC=   4 NFV=   0.
 Using Ix for Sx.
 Use MO integrals over full window.
 Using OV2 memory method for fx*t*t/D, MaxI=    16 DoOO2=F NP=  28.
 R2 and R3 integrals will be kept in memory, NReq=   915591705.
 FoFCou: FMM=F IPFlag=           0 FMFlag=           0 FMFlg1=           0
         NFxFlg=           0 DoJE=F BraDBF=F KetDBF=F FulRan=T
         wScrn=  0.000000 ICntrl=       600 IOpCl=  0 I1Cent=           0 NGrid=           0
         NMat0=    1 NMatS0=      1 NMatT0=    0 NMatD0=    1 NMtDS0=    0 NMtDT0=    0
 Symmetry not used in FoFCou.
 DD1Dir will call FoFMem   1 times, MxPair=       272
 NAB=   136 NAA=     0 NBB=     0.
 Symmetry is being used.
 FoFJK:  IHMeth= 1 ICntrl=       0 DoSepK=F KAlg= 0 I1Cent=           0 FoldK=F
 IRaf=         0 NMat=      18 IRICut=      45 DoRegI=T DoRafI=T ISym2E= 2 IDoP0=3 IntGTp=3.
 Discarding MO integrals.
 Leave Link 1112 at Mon Feb 21 20:28:16 2022, MaxMem= 16106127360 cpu:            1114.0 elap:              40.3
 (Enter /sw/contrib/gaussian/g16/B01/g16/l601.exe)
 Copying SCF densities to generalized density rwf, IOpCl= 0 IROHF=0.

 **********************************************************************

            Population analysis using the MP2 Density.

 **********************************************************************

 Orbital symmetries:
       Occupied  (A') (A') (A') (A') (A') (A') (A') (A') (A') (A')
                 (A") (A') (A") (A') (A") (A')
       Virtual   (A') (A") (A') (A') (A') (A") (A') (A') (A") (A')
                 (A") (A') (A') (A') (A") (A') (A') (A") (A') (A')
                 (A') (A') (A') (A') (A") (A') (A') (A") (A') (A')
                 (A") (A') (A") (A') (A') (A") (A') (A') (A") (A')
                 (A") (A') (A") (A') (A') (A") (A') (A') (A") (A')
                 (A") (A') (A') (A') (A") (A') (A") (A') (A") (A')
                 (A') (A') (A") (A') (A') (A") (A') (A") (A') (A')
                 (A") (A') (A') (A") (A") (A') (A') (A") (A') (A')
                 (A') (A") (A') (A") (A') (A") (A') (A") (A') (A')
                 (A") (A') (A') (A") (A') (A") (A') (A") (A') (A')
                 (A") (A') (A") (A') (A') (A") (A') (A') (A") (A')
                 (A") (A') (A') (A') (A") (A') (A') (A') (A") (A')
                 (A") (A') (A") (A') (A') (A") (A") (A') (A") (A')
                 (A') (A') (A') (A") (A") (A") (A') (A') (A') (A')
                 (A") (A') (A") (A') (A') (A") (A') (A') (A') (A')
                 (A") (A') (A') (A") (A') (A") (A') (A") (A') (A")
                 (A') (A") (A') (A') (A") (A") (A") (A') (A") (A')
                 (A") (A') (A") (A') (A") (A') (A") (A') (A") (A')
                 (A') (A') (A') (A') (A') (A') (A') (A') (A') (A')
                 (A')
 The electronic state is 1-A'.
 Alpha  occ. eigenvalues --  -20.69272 -20.68397 -20.66099 -15.81399  -1.61774
 Alpha  occ. eigenvalues --   -1.49555  -1.25520  -0.94916  -0.77192  -0.75711
 Alpha  occ. eigenvalues --   -0.71029  -0.67838  -0.61879  -0.58993  -0.48587
 Alpha  occ. eigenvalues --   -0.47404
 Alpha virt. eigenvalues --    0.02941   0.06923   0.08607   0.10172   0.13384
 Alpha virt. eigenvalues --    0.13411   0.14391   0.15434   0.17812   0.19426
 Alpha virt. eigenvalues --    0.19952   0.20635   0.22055   0.23477   0.23733
 Alpha virt. eigenvalues --    0.26596   0.29263   0.30357   0.31009   0.34352
 Alpha virt. eigenvalues --    0.34947   0.38691   0.42162   0.43153   0.52749
 Alpha virt. eigenvalues --    0.52799   0.55798   0.58146   0.62159   0.63867
 Alpha virt. eigenvalues --    0.67691   0.68394   0.70632   0.71095   0.72384
 Alpha virt. eigenvalues --    0.72893   0.74469   0.79112   0.79155   0.81060
 Alpha virt. eigenvalues --    0.81198   0.82854   0.86756   0.90755   0.92122
 Alpha virt. eigenvalues --    0.92558   0.95618   0.97581   0.98395   1.01608
 Alpha virt. eigenvalues --    1.05148   1.05426   1.08084   1.11657   1.14043
 Alpha virt. eigenvalues --    1.18902   1.21964   1.23149   1.33825   1.34994
 Alpha virt. eigenvalues --    1.38496   1.45303   1.48738   1.50799   1.53779
 Alpha virt. eigenvalues --    1.56693   1.57990   1.61266   1.66227   1.66930
 Alpha virt. eigenvalues --    1.70354   1.79275   1.83195   1.83440   1.87617
 Alpha virt. eigenvalues --    1.91006   1.95827   1.99011   2.00609   2.07739
 Alpha virt. eigenvalues --    2.12073   2.13123   2.14905   2.22402   2.26370
 Alpha virt. eigenvalues --    2.26419   2.28882   2.31338   2.34153   2.38541
 Alpha virt. eigenvalues --    2.42264   2.42691   2.45399   2.46177   2.47547
 Alpha virt. eigenvalues --    2.49970   2.58835   2.59505   2.61935   2.62149
 Alpha virt. eigenvalues --    2.63352   2.66517   2.75439   2.82126   2.85190
 Alpha virt. eigenvalues --    2.88050   2.89219   2.92125   2.95607   3.02331
 Alpha virt. eigenvalues --    3.06934   3.11906   3.20392   3.22448   3.31510
 Alpha virt. eigenvalues --    3.34049   3.51355   3.64267   3.83721   3.84188
 Alpha virt. eigenvalues --    4.14769   4.16178   4.18246   4.23875   4.35068
 Alpha virt. eigenvalues --    4.39197   4.46108   4.51755   4.65212   4.70908
 Alpha virt. eigenvalues --    4.80080   4.82314   4.82707   4.89623   5.02442
 Alpha virt. eigenvalues --    5.07677   5.10025   5.14782   5.17633   5.23936
 Alpha virt. eigenvalues --    5.27140   5.30846   5.32822   5.34878   5.60441
 Alpha virt. eigenvalues --    5.66061   5.76207   5.82562   5.96055   6.16647
 Alpha virt. eigenvalues --    6.30718   6.33747   6.39323   6.49361   6.50528
 Alpha virt. eigenvalues --    6.61256   6.66690   6.69627   6.75642   6.76194
 Alpha virt. eigenvalues --    6.82778   6.89526   7.01083   7.05393   7.05551
 Alpha virt. eigenvalues --    7.08886   7.12049   7.14755   7.18038   7.21921
 Alpha virt. eigenvalues --    7.23987   7.30280   7.30834   7.34230   7.39346
 Alpha virt. eigenvalues --    7.43004   7.48342   7.60380   7.60620   7.61853
 Alpha virt. eigenvalues --    7.66360   7.78227   7.87381   8.08950   8.31148
 Alpha virt. eigenvalues --    8.40819   8.54238  13.37454  14.32847  15.15793
 Alpha virt. eigenvalues --   15.91743
          Condensed to atoms (all electrons):
               1          2          3          4          5
     1  H    0.589331   0.128385   0.020066   0.012336  -0.000649
     2  O    0.128385   8.320947  -0.173442  -0.090401   0.015467
     3  O    0.020066  -0.173442   8.462756  -0.126794  -0.037156
     4  N    0.012336  -0.090401  -0.126794   6.968762  -0.054753
     5  O   -0.000649   0.015467  -0.037156  -0.054753   8.272085
 Mulliken charges:
               1
     1  H    0.250531
     2  O   -0.200956
     3  O   -0.145430
     4  N    0.290850
     5  O   -0.194995
 Sum of Mulliken charges =  -0.00000
 Mulliken charges with hydrogens summed into heavy atoms:
               1
     2  O    0.049575
     3  O   -0.145430
     4  N    0.290850
     5  O   -0.194995
 APT charges:
               1
     1  H    0.299571
     2  O   -0.288363
     3  O   -0.490794
     4  N    0.865645
     5  O   -0.386059
 Sum of APT charges =  -0.00000
 APT charges with hydrogens summed into heavy atoms:
               1
     2  O    0.011208
     3  O   -0.490794
     4  N    0.865645
     5  O   -0.386059
 Electronic spatial extent (au):  <R**2>=            253.6366
 Charge=             -0.0000 electrons
 Dipole moment (field-independent basis, Debye):
    X=              0.5376    Y=              1.3955    Z=              0.0000  Tot=              1.4955
 Quadrupole moment (field-independent basis, Debye-Ang):
   XX=            -22.5098   YY=            -18.6157   ZZ=            -22.0235
   XY=              3.2297   XZ=             -0.0000   YZ=              0.0000
 Traceless Quadrupole moment (field-independent basis, Debye-Ang):
   XX=             -1.4601   YY=              2.4340   ZZ=             -0.9738
   XY=              3.2297   XZ=             -0.0000   YZ=              0.0000
 Octapole moment (field-independent basis, Debye-Ang**2):
  XXX=              2.9210  YYY=             11.4936  ZZZ=             -0.0000  XYY=              7.9819
  XXY=              6.6055  XXZ=              0.0000  XZZ=             -1.5526  YZZ=             -0.8280
  YYZ=              0.0000  XYZ=              0.0000
 Hexadecapole moment (field-independent basis, Debye-Ang**3):
 XXXX=           -158.7735 YYYY=            -90.2713 ZZZZ=            -18.2538 XXXY=            -36.9766
 XXXZ=             -0.0000 YYYX=            -30.9741 YYYZ=             -0.0000 ZZZX=             -0.0000
 ZZZY=             -0.0000 XXYY=            -34.1271 XXZZ=            -30.9181 YYZZ=            -20.7876
 XXYZ=             -0.0000 YYXZ=             -0.0000 ZZXY=            -15.1554
 N-N= 1.166327815351D+02 E-N=-8.953556947060D+02  KE= 2.801645197026D+02
 Symmetry A'   KE= 2.661963889388D+02
 Symmetry A"   KE= 1.396813076384D+01
  Exact polarizability:  34.084   9.558  30.359   0.000   0.000  17.943
 Approx polarizability:  29.183   5.169  23.589   0.000   0.000  15.556
 No NMR shielding tensors so no spin-rotation constants.
 Leave Link  601 at Mon Feb 21 20:28:16 2022, MaxMem= 16106127360 cpu:               4.4 elap:               0.2
 (Enter /sw/contrib/gaussian/g16/B01/g16/l701.exe)
 ... and contract with generalized density number  2.
 Compute integral second derivatives.
 Leave Link  701 at Mon Feb 21 20:28:16 2022, MaxMem= 16106127360 cpu:               6.0 elap:               0.2
 (Enter /sw/contrib/gaussian/g16/B01/g16/l702.exe)
 L702 exits ... SP integral derivatives will be done elsewhere.
 Leave Link  702 at Mon Feb 21 20:28:16 2022, MaxMem= 16106127360 cpu:               0.8 elap:               0.0
 (Enter /sw/contrib/gaussian/g16/B01/g16/l703.exe)
 Integral derivatives from FoFJK, PRISM(SPDF).
 Compute integral second derivatives, UseDBF=F ICtDFT=           0.
 Calling FoFJK, ICntrl=  10100127 FMM=F ISym2X=1 I1Cent= 0 IOpClX= 0 NMat=1 NMatS=1 NMatT=0.
 FoFJK:  IHMeth= 1 ICntrl=10100127 DoSepK=F KAlg= 0 I1Cent=           0 FoldK=F
 IRaf=         0 NMat=       1 IRICut=       1 DoRegI=T DoRafI=F ISym2E= 1 IDoP0=0 IntGTp=1.
 FoFCou: FMM=F IPFlag=           0 FMFlag=      100000 FMFlg1=         800
         NFxFlg=           0 DoJE=F BraDBF=F KetDBF=F FulRan=T
         wScrn=  0.000000 ICntrl=  10100127 IOpCl=  0 I1Cent=           0 NGrid=           0
         NMat0=    1 NMatS0=      1 NMatT0=    0 NMatD0=    1 NMtDS0=    0 NMtDT0=    0
 Petite list used in FoFCou.
 Leave Link  703 at Mon Feb 21 20:28:31 2022, MaxMem= 16106127360 cpu:             422.6 elap:              15.1
 (Enter /sw/contrib/gaussian/g16/B01/g16/l716.exe)
 Dipole        = 2.11513155D-01 5.49024861D-01 1.28139066D-32
 Polarizability= 3.40844818D+01 9.55759350D+00 3.03594617D+01
                 2.89156993D-31 3.77712614D-31 1.79426059D+01
 Full mass-weighted force constant matrix:
 Low frequencies --- -270.6885    0.0014    0.0016    0.0022   34.3656   45.8360
 Low frequencies ---   72.5556  255.2882  347.0992
 ******    1 imaginary frequencies (negative Signs) ****** 
 Diagonal vibrational polarizability:
       14.1345179      25.7812888      46.1650184
 Harmonic frequencies (cm**-1), IR intensities (KM/Mole), Raman scattering
 activities (A**4/AMU), depolarization ratios for plane and unpolarized
 incident light, reduced masses (AMU), force constants (mDyne/A),
 and normal coordinates:
                      1                      2                      3
                     A"                     A"                     A'
 Frequencies --   -270.5696               253.2530               347.0028
 Red. masses --      1.1323                11.1199                 8.5215
 Frc consts  --      0.0488                 0.4202                 0.6045
 IR Inten    --    125.0821                 0.4406                 6.9905
  Atom  AN      X      Y      Z        X      Y      Z        X      Y      Z
     1   1     0.00  -0.00   1.00     0.00  -0.00  -0.54     0.55  -0.43   0.00
     2   8    -0.00  -0.00  -0.06     0.00  -0.00  -0.32    -0.09  -0.37   0.00
     3   8     0.00   0.00  -0.04    -0.00   0.00   0.33    -0.14   0.44  -0.00
     4   7    -0.00   0.00   0.05    -0.00   0.00   0.54     0.03   0.24  -0.00
     5   8     0.00  -0.00  -0.00     0.00  -0.00  -0.45     0.16  -0.25   0.00
                      4                      5                      6
                     A'                     A'                     A'
 Frequencies --    447.5442               785.4959               966.3230
 Red. masses --     12.4319                13.0901                15.3942
 Frc consts  --      1.4671                 4.7586                 8.4694
 IR Inten    --    197.8799               170.6676                23.5996
  Atom  AN      X      Y      Z        X      Y      Z        X      Y      Z
     1   1     0.39   0.21   0.00    -0.33   0.18   0.00    -0.17  -0.04  -0.00
     2   8     0.32   0.22   0.00     0.42   0.08   0.00    -0.52   0.03   0.00
     3   8     0.18   0.43  -0.00    -0.06  -0.26  -0.00     0.75  -0.02  -0.00
     4   7    -0.36  -0.42  -0.00    -0.14   0.63  -0.00    -0.12   0.24  -0.00
     5   8    -0.22  -0.29   0.00    -0.22  -0.38   0.00    -0.12  -0.22   0.00
                      7                      8                      9
                     A'                     A'                     A'
 Frequencies --   1370.3142              1627.4660              3778.7748
 Red. masses --      1.1391                12.3863                 1.0675
 Frc consts  --      1.2602                19.3293                 8.9813
 IR Inten    --    158.0373               120.2016                83.1412
  Atom  AN      X      Y      Z        X      Y      Z        X      Y      Z
     1   1     0.99  -0.05   0.00    -0.42   0.01  -0.00     0.10   0.99  -0.00
     2   8    -0.03   0.05   0.00    -0.00  -0.04  -0.00    -0.01  -0.06  -0.00
     3   8    -0.02  -0.05  -0.00     0.00   0.16   0.00     0.00   0.00   0.00
     4   7     0.03   0.01  -0.00     0.68  -0.06   0.00    -0.00  -0.00   0.00
     5   8    -0.04  -0.01   0.00    -0.57  -0.06  -0.00     0.00   0.00  -0.00

 -------------------
 - Thermochemistry -
 -------------------
 Temperature   298.150 Kelvin.  Pressure   1.00000 Atm.
 Atom     1 has atomic number  1 and mass   1.00783
 Atom     2 has atomic number  8 and mass  15.99491
 Atom     3 has atomic number  8 and mass  15.99491
 Atom     4 has atomic number  7 and mass  14.00307
 Atom     5 has atomic number  8 and mass  15.99491
 Molecular mass:    62.99564 amu.
 Principal axes and moments of inertia in atomic units:
                           1         2         3
     Eigenvalues --    32.87247 361.49090 394.36338
           X            0.80912  -0.58765   0.00000
           Y            0.58765   0.80912   0.00000
           Z           -0.00000   0.00000   1.00000
 This molecule is an asymmetric top.
 Rotational symmetry number  1.
 Rotational temperatures (Kelvin)      2.63485     0.23960     0.21963
 Rotational constants (GHZ):          54.90129     4.99249     4.57634
    1 imaginary frequencies ignored.
 Zero-point vibrational energy      57278.2 (Joules/Mol)
                                   13.68983 (Kcal/Mol)
 Warning -- explicit consideration of   3 degrees of freedom as
           vibrations may cause significant error
 Vibrational temperatures:    364.37   499.26   643.92  1130.15  1390.32
          (Kelvin)           1971.58  2341.56  5436.81
 
 Zero-point correction=                           0.021816 (Hartree/Particle)
 Thermal correction to Energy=                    0.025897
 Thermal correction to Enthalpy=                  0.026841
 Thermal correction to Gibbs Free Energy=        -0.004256
 Sum of electronic and zero-point Energies=           -280.424835
 Sum of electronic and thermal Energies=              -280.420754
 Sum of electronic and thermal Enthalpies=            -280.419810
 Sum of electronic and thermal Free Energies=         -280.450907
 
                     E (Thermal)             CV                S
                      KCal/Mol        Cal/Mol-Kelvin    Cal/Mol-Kelvin
 Total                   16.251             11.922             65.450
 Electronic               0.000              0.000              0.000
 Translational            0.889              2.981             38.341
 Rotational               0.889              2.981             23.065
 Vibrational             14.473              5.960              4.045
 Vibration     1          0.664              1.757              1.708
 Vibration     2          0.725              1.581              1.180
 Vibration     3          0.807              1.366              0.803
                       Q            Log10(Q)             Ln(Q)
 Total Bot       0.907146D+02          1.957677          4.507718
 Total V=0       0.982633D+12         11.992391         27.613501
 Vib (Bot)       0.188364D-09         -9.725001        -22.392643
 Vib (Bot)    1  0.769464D+00         -0.113812         -0.262061
 Vib (Bot)    2  0.532725D+00         -0.273497         -0.629750
 Vib (Bot)    3  0.383936D+00         -0.415741         -0.957280
 Vib (V=0)       0.204039D+01          0.309713          0.713140
 Vib (V=0)    1  0.141765D+01          0.151568          0.348998
 Vib (V=0)    2  0.123061D+01          0.090122          0.207513
 Vib (V=0)    3  0.113040D+01          0.053233          0.122573
 Electronic      0.100000D+01          0.000000          0.000000
 Translational   0.196526D+08          7.293420         16.793719
 Rotational      0.245052D+05          4.389259         10.106642
 
                                                                title
                                                             IR Spectrum
 
     3                                                                        1       1                                              
     7                                                                        6       3             9     7          4   3  2        
     7                                                                        2       7             6     8          4   4  5        
     9                                                                        7       0             6     5          8   7  3        
 
     X                                                                        X       X             X     X          X   X  X        
     X                                                                        X       X             X     X          X               
     X                                                                        X       X                   X          X               
     X                                                                        X       X                   X          X               
     X                                                                        X       X                   X          X               
     X                                                                        X       X                   X          X               
     X                                                                        X       X                   X          X               
     X                                                                        X       X                   X          X               
                                                                              X       X                   X          X               
                                                                              X       X                   X          X               
                                                                              X       X                   X          X               
                                                                              X       X                   X          X               
                                                                                      X                   X          X               
                                                                                      X                   X          X               
                                                                                      X                   X          X               
                                                                                      X                   X          X               
                                                                                                          X          X               
                                                                                                                     X               
                                                                                                                     X               
                                                                                                                     X               
 
 ***** Axes restored to original set *****
 -------------------------------------------------------------------
 Center     Atomic                   Forces (Hartrees/Bohr)
 Number     Number              X              Y              Z
 -------------------------------------------------------------------
      1        1           0.000106709    0.000000000   -0.000051245
      2        8           0.000197277    0.000000000    0.000303465
      3        8           0.000501419    0.000000000    0.002045855
      4        7           0.010096327    0.000000000    0.001102325
      5        8          -0.010901732   -0.000000000   -0.003400401
 -------------------------------------------------------------------
 Cartesian Forces:  Max     0.010901732 RMS     0.003984498
 -----------------------------------------------------------------------------------------------
                       Internal Coordinate Forces (Hartree/Bohr or radian)
  Cent   Atom   N1       Length/X         N2         Alpha/Y        N3         Beta/Z          J
 -----------------------------------------------------------------------------------------------
      1  H 
      2  O        1   0.000051(     1)
      3  O        2  -0.000335(     2)      1  -0.000195(     5)
      4  N        3  -0.002356(     3)      2  -0.000382(     6)      1   0.000000(     8)     0
      5  O        4  -0.011405(     4)      3  -0.001312(     7)      2  -0.000000(     9)     0
 -----------------------------------------------------------------------------------------------
 Internal  Forces:  Max     0.011404541 RMS     0.003910604
 Force constants in Cartesian coordinates: 
                1             2             3             4             5 
      1  0.646830D-01
      2  0.000000D+00 -0.240900D-02
      3  0.527723D-02  0.000000D+00  0.512381D+00
      4 -0.359031D-01  0.000000D+00 -0.162497D-01  0.272594D+00
      5  0.000000D+00  0.311940D-02  0.000000D+00  0.000000D+00  0.206139D-02
      6  0.483642D-01  0.000000D+00 -0.508557D+00  0.332612D-01  0.000000D+00
      7 -0.182744D-01  0.000000D+00  0.124948D-01 -0.220007D+00  0.000000D+00
      8  0.000000D+00  0.988877D-03  0.000000D+00  0.000000D+00 -0.656592D-02
      9 -0.532170D-01  0.000000D+00 -0.473958D-03 -0.192115D-01  0.000000D+00
     10 -0.926279D-02  0.000000D+00 -0.482059D-02 -0.170359D-01  0.000000D+00
     11  0.000000D+00 -0.272524D-02  0.000000D+00  0.000000D+00 -0.492203D-02
     12  0.523747D-02  0.000000D+00 -0.475612D-02  0.113513D-01  0.000000D+00
     13 -0.124271D-02  0.000000D+00  0.329827D-02  0.351403D-03  0.000000D+00
     14  0.000000D+00  0.102596D-02  0.000000D+00  0.000000D+00  0.630716D-02
     15 -0.566188D-02  0.000000D+00  0.140656D-02 -0.915133D-02  0.000000D+00
                6             7             8             9            10 
      6  0.594849D+00
      7 -0.210709D-01  0.341123D+00
      8  0.000000D+00  0.000000D+00  0.492293D-02
      9 -0.787237D-01  0.349598D-01  0.000000D+00  0.179754D+00
     10 -0.524803D-01 -0.782392D-01  0.000000D+00  0.172522D+00  0.782223D+00
     11  0.000000D+00  0.000000D+00  0.799922D-02  0.000000D+00  0.000000D+00
     12  0.167043D-01  0.623517D-01  0.000000D+00 -0.813026D-01 -0.272430D-01
     13 -0.807417D-02 -0.246031D-01  0.000000D+00 -0.135053D+00 -0.677685D+00
     14  0.000000D+00  0.000000D+00 -0.734510D-02  0.000000D+00  0.000000D+00
     15 -0.242720D-01 -0.887353D-01  0.000000D+00 -0.192539D-01 -0.879782D-01
               11            12            13            14            15 
     11  0.139492D-01
     12  0.000000D+00  0.187204D+00
     13  0.000000D+00 -0.516975D-01  0.703180D+00
     14 -0.143012D-01  0.000000D+00  0.000000D+00  0.143131D-01
     15  0.000000D+00 -0.117850D+00  0.191527D+00  0.000000D+00  0.159969D+00
 Force constants in internal coordinates: 
                1             2             3             4             5 
      1  0.512381D+00
      2 -0.103708D-01  0.280920D+00
      3  0.346309D-02  0.256621D-02  0.115620D+00
      4 -0.354413D-02  0.586060D-02  0.149547D+00  0.761810D+00
      5  0.976987D-02  0.652185D-01  0.235169D-02  0.477685D-02  0.216972D+00
      6  0.463751D-02  0.592949D-01  0.410033D-01  0.216446D-01  0.315625D-01
      7 -0.121205D-02  0.373654D-01  0.307163D-01  0.838246D-01  0.211133D-01
      8  0.000000D+00  0.000000D+00  0.000000D+00  0.000000D+00  0.000000D+00
      9  0.000000D+00  0.000000D+00  0.000000D+00  0.000000D+00  0.000000D+00
                6             7             8             9 
      6  0.283395D+00
      7  0.947130D-01  0.477344D+00
      8  0.000000D+00  0.000000D+00 -0.781761D-02
      9  0.000000D+00  0.000000D+00 -0.391939D-02  0.411431D-01
 Leave Link  716 at Mon Feb 21 20:28:31 2022, MaxMem= 16106127360 cpu:               0.8 elap:               0.1
 (Enter /sw/contrib/gaussian/g16/B01/g16/l103.exe)

 GradGradGradGradGradGradGradGradGradGradGradGradGradGradGradGradGradGrad
 Berny optimization.
 Search for a local minimum.
 Step number   1 out of a maximum of    2
 All quantities printed in internal units (Hartrees-Bohrs-Radians)
 Second derivative matrix not updated -- analytic derivatives used.
 The second derivative matrix:
                          r1        r2        r3        r4        a1
           r1           0.51238
           r2          -0.01037   0.28092
           r3           0.00346   0.00257   0.11562
           r4          -0.00354   0.00586   0.14955   0.76181
           a1           0.00977   0.06522   0.00235   0.00478   0.21697
           a2           0.00464   0.05929   0.04100   0.02164   0.03156
           a3          -0.00121   0.03737   0.03072   0.08382   0.02111
           d1           0.00000  -0.00000  -0.00000  -0.00000  -0.00000
           d2          -0.00000   0.00000   0.00000   0.00000   0.00000
                          a2        a3        d1        d2
           a2           0.28340
           a3           0.09471   0.47734
           d1          -0.00000  -0.00000  -0.00782
           d2          -0.00000  -0.00000  -0.00392   0.04114
 ITU=  0
     Eigenvalues ---   -0.00813   0.04145   0.07612   0.17547   0.22550
     Eigenvalues ---    0.32455   0.50902   0.51320   0.82459
 Eigenvalue     1 is  -8.13D-03 should be greater than     0.000000 Eigenvector:
                          d1        d2        a3        a2        r3
   1                    0.99685   0.07929   0.00000   0.00000  -0.00000
                          r4        r2        a1        r1
   1                    0.00000   0.00000  -0.00000  -0.00000
 Angle between quadratic step and forces=   9.30 degrees.
 Linear search not attempted -- first point.
 Variable       Old X    -DE/DX   Delta X   Delta X   Delta X     New X
                                 (Linear)    (Quad)   (Total)
    r1        1.83110   0.00005   0.00000  -0.00000  -0.00000   1.83109
    r2        2.74940  -0.00033   0.00000  -0.00083  -0.00083   2.74857
    r3        2.75670  -0.00236   0.00000  -0.00143  -0.00143   2.75528
    r4        2.22734  -0.01140   0.00000  -0.01468  -0.01468   2.21265
    a1        1.70335  -0.00020   0.00000  -0.00034  -0.00034   1.70302
    a2        1.78543  -0.00038   0.00000   0.00021   0.00021   1.78563
    a3        1.90362  -0.00131   0.00000  -0.00004  -0.00004   1.90358
    d1        3.14159   0.00000   0.00000   0.00000   0.00000   3.14159
    d2        3.14159  -0.00000   0.00000  -0.00000   0.00000   3.14159
         Item               Value     Threshold  Converged?
 Maximum Force            0.011405     0.000450     NO 
 RMS     Force            0.003911     0.000300     NO 
 Maximum Displacement     0.014684     0.001800     NO 
 RMS     Displacement     0.004927     0.001200     NO 
 Predicted change in Energy=-8.556749D-05
                       ----------------------------
                       ! Non-Optimized Parameters !
                       ! (Angstroms and Degrees)  !
 ----------------------                            ----------------------
 !      Name          Value   Derivative information (Atomic Units)     !
 ------------------------------------------------------------------------
 !       r1          0.969    -DE/DX =    0.0001                        !
 !       r2          1.4545   -DE/DX =   -0.0003                        !
 !       r3          1.458    -DE/DX =   -0.0024                        !
 !       r4          1.1709   -DE/DX =   -0.0114                        !
 !       a1         97.5756   -DE/DX =   -0.0002                        !
 !       a2        102.3093   -DE/DX =   -0.0004                        !
 !       a3        109.0673   -DE/DX =   -0.0013                        !
 !       d1        180.0      -DE/DX =    0.0                           !
 !       d2        180.0      -DE/DX =    0.0                           !
 ------------------------------------------------------------------------
 GradGradGradGradGradGradGradGradGradGradGradGradGradGradGradGradGradGrad

 Leave Link  103 at Mon Feb 21 20:28:31 2022, MaxMem= 16106127360 cpu:               1.0 elap:               0.1
 (Enter /sw/contrib/gaussian/g16/B01/g16/l9999.exe)

 ----------------------------------------------------------------------

 Electric dipole moment (input orientation):
 (Debye = 10**-18 statcoulomb cm , SI units = C m)
                  (au)            (Debye)         (10**-30 SI)
   Tot        0.588359D+00      0.149546D+01      0.498831D+01
   x         -0.158288D+00     -0.402327D+00     -0.134202D+01
   y          0.000000D+00      0.000000D+00      0.000000D+00
   z         -0.566667D+00     -0.144032D+01     -0.480440D+01

 Dipole polarizability, Alpha (input orientation).
 (esu units = cm**3 , SI units = C**2 m**2 J**-1)
 Alpha(0;0):
               (au)            (10**-24 esu)      (10**-40 SI)
   iso        0.274622D+02      0.406948D+01      0.452790D+01
   aniso      0.220986D+02      0.327468D+01      0.364357D+01
   xx         0.322393D+02      0.477737D+01      0.531554D+01
   yx         0.000000D+00      0.000000D+00      0.000000D+00
   yy         0.179426D+02      0.265882D+01      0.295834D+01
   zx         0.973736D+01      0.144293D+01      0.160547D+01
   zy         0.000000D+00      0.000000D+00      0.000000D+00
   zz         0.322046D+02      0.477224D+01      0.530983D+01

 ----------------------------------------------------------------------

 Dipole orientation:
     1          0.00000000          0.00000000          0.00000000
     8         -0.49262464          0.00000000         -1.76358794
     8          2.03441416          0.00000000         -2.84676381
     7          1.51293983          0.00000000         -5.55369424
     8          3.44238259          0.00000000         -6.66647652

 Electric dipole moment (dipole orientation):
 (Debye = 10**-18 statcoulomb cm , SI units = C m)
                  (au)            (Debye)         (10**-30 SI)
   Tot        0.588359D+00      0.149546D+01      0.498831D+01
   x          0.000000D+00      0.000000D+00      0.000000D+00
   y          0.000000D+00      0.000000D+00      0.000000D+00
   z          0.588359D+00      0.149546D+01      0.498831D+01

 Dipole polarizability, Alpha (dipole orientation).
 (esu units = cm**3 , SI units = C**2 m**2 J**-1)
 Alpha(0;0):
               (au)            (10**-24 esu)      (10**-40 SI)
   iso        0.274622D+02      0.406948D+01      0.452790D+01
   aniso      0.220986D+02      0.327468D+01      0.364357D+01
   xx         0.271906D+02      0.402924D+01      0.448313D+01
   yx         0.000000D+00      0.000000D+00      0.000000D+00
   yy         0.179426D+02      0.265882D+01      0.295834D+01
   zx        -0.833679D+01     -0.123539D+01     -0.137455D+01
   zy         0.000000D+00      0.000000D+00      0.000000D+00
   zz         0.372533D+02      0.552037D+01      0.614224D+01

 ----------------------------------------------------------------------
 1\1\GINC-N2110\Freq\RMP2-FC\Aug-CC-pVTZ\H1N1O3\CGAVINH\21-Feb-2022\1\\
 #p freq mp2/aug-cc-pvtz density=current\\title\\0,1\H\O,1,r1\O,2,r2,1,
 a1\N,3,r3,2,a2,1,d1,0\O,4,r4,3,a3,2,d2,0\\r1=0.96897556\r2=1.45491931\
 r3=1.45878406\r4=1.17865642\a1=97.59494903\a2=102.29752444\a3=109.0695
 5123\d1=180.\d2=180.\\Version=ES64L-G16RevB.01\State=1-A'\HF=-279.5002
 415\MP2=-280.4466512\RMSD=4.007e-09\RMSF=3.984e-03\ZeroPoint=0.0218161
 \Thermal=0.025897\Dipole=-0.1582875,0.,-0.5666667\DipoleDeriv=0.266393
 8,0.,0.0484172,0.,0.3558136,0.,0.0826597,0.,0.2765057,-0.3295935,0.,-0
 .208538,0.,-0.3134665,0.,-0.1119296,0.,-0.2220283,-0.0410731,0.,0.1495
 186,0.,-0.0837054,0.,-0.7504921,0.,-1.3476034,0.8724205,0.,0.8898165,0
 .,0.0655632,0.,0.9151899,0.,1.6589506,-0.7681477,0.,-0.8792143,0.,-0.0
 24205,0.,-0.135428,0.,-0.3658246\Polar=32.2392968,0.,17.9426059,9.7373
 629,0.,32.2046467\Quadrupole=-1.5144319,-0.72401,2.2384419,0.,2.083314
 1,0.\PG=CS [SG(H1N1O3)]\NImag=1\\0.06468303,0.,-0.00240900,0.00527723,
 0.,0.51238099,-0.03590312,0.,-0.01624967,0.27259439,0.,0.00311940,0.,0
 .,0.00206139,0.04836419,0.,-0.50855747,0.03326124,0.,0.59484878,-0.018
 27442,0.,0.01249477,-0.22000676,0.,-0.02107092,0.34112349,0.,0.0009888
 8,0.,0.,-0.00656592,0.,0.,0.00492293,-0.05321701,0.,-0.00047396,-0.019
 21154,0.,-0.07872366,0.03495976,0.,0.17975409,-0.00926279,0.,-0.004820
 59,-0.01703591,0.,-0.05248033,-0.07823916,0.,0.17252212,0.78222300,0.,
 -0.00272524,0.,0.,-0.00492203,0.,0.,0.00799922,0.,0.,0.01394921,0.0052
 3747,0.,-0.00475612,0.01135131,0.,0.01670434,0.06235171,0.,-0.08130261
 ,-0.02724300,0.,0.18720407,-0.00124271,0.,0.00329827,0.00035140,0.,-0.
 00807417,-0.02460314,0.,-0.13505333,-0.67768514,0.,-0.05169748,0.70317
 958,0.,0.00102596,0.,0.,0.00630716,0.,0.,-0.00734510,0.,0.,-0.01430115
 ,0.,0.,0.01431313,-0.00566188,0.,0.00140656,-0.00915133,0.,-0.02427200
 ,-0.08873531,0.,-0.01925386,-0.08797819,0.,-0.11784968,0.19152672,0.,0
 .15996898\\-0.00010671,0.,0.00005125,-0.00019728,0.,-0.00030347,-0.000
 50142,0.,-0.00204586,-0.01009633,0.,-0.00110233,0.01090173,0.,0.003400
 40\\\@


 Statistics are no substitute for judgment.
                            -- Henry Clay
 Job cpu time:       0 days  2 hours  3 minutes  7.8 seconds.
 Elapsed time:       0 days  0 hours  4 minutes 27.3 seconds.
 File lengths (MBytes):  RWF=   7239 Int=      0 D2E=      0 Chk=      8 Scr=      1
 Normal termination of Gaussian 16 at Mon Feb 21 20:28:32 2022.
