title                                                                   
Freq      RMP2-FC                                                     Aug-CC-pVTZ         
Number of atoms                            I                5
Info1-9                                    I   N=           9
          33          24           0           0           0         100
           6           2           1
Full Title                                 C   N=           1
title       
Route                                      C   N=           4
#p freq mp2/aug-cc-pvtz density=current         
Charge                                     I                0
Multiplicity                               I                1
Number of electrons                        I               32
Number of alpha electrons                  I               16
Number of beta electrons                   I               16
Number of basis functions                  I              207
Number of independent functions            I              207
Number of point charges in /Mol/           I                0
Number of translation vectors              I                0
Atomic numbers                             I   N=           5
           1           8           8           7           8
Nuclear charges                            R   N=           5
  1.00000000E+00  8.00000000E+00  8.00000000E+00  7.00000000E+00  8.00000000E+00
Current cartesian coordinates              R   N=          15
  2.10061406E+00 -1.10859234E+00  0.00000000E+00  2.48646718E+00  6.89729203E-01
  4.93038066E-32  1.70000485E-16  1.73215912E+00 -1.84889275E-32 -1.87371666E+00
 -8.46631482E-02 -4.93038066E-32 -1.10954186E+00 -2.20923403E+00  0.00000000E+00
Number of symbols in /Mol/                 I                0
Force Field                                I                0
Atom Types                                 C   N=           5
                                                            
Int Atom Types                             I   N=           5
           0           0           0           0           0
MM charges                                 R   N=           5
  0.00000000E+00  0.00000000E+00  0.00000000E+00  0.00000000E+00  0.00000000E+00
Integer atomic weights                     I   N=           5
           1          16          16          14          16
Real atomic weights                        R   N=           5
  1.00782504E+00  1.59949146E+01  1.59949146E+01  1.40030740E+01  1.59949146E+01
Atom fragment info                         I   N=           5
           0           0           0           0           0
Atom residue num                           I   N=           5
           0           0           0           0           0
Nuclear spins                              I   N=           5
           1           0           0           2           0
Nuclear ZEff                               R   N=           5
 -1.00000000E+00 -5.60000000E+00 -5.60000000E+00 -4.55000000E+00 -5.60000000E+00
Nuclear ZNuc                               R   N=           5
  1.00000000E+00  8.00000000E+00  8.00000000E+00  7.00000000E+00  8.00000000E+00
Nuclear QMom                               R   N=           5
  0.00000000E+00  0.00000000E+00  0.00000000E+00  2.04400000E+00  0.00000000E+00
Nuclear GFac                               R   N=           5
  2.79284600E+00  0.00000000E+00  0.00000000E+00  4.03761000E-01  0.00000000E+00
MicOpt                                     I   N=           5
          -1          -1          -1          -1          -1
Number of residues                         I                0
Number of secondary structures             I                0
SymInf integers                            I   N=          26
           1           2           1           1           1           1
           1          -1           0           0           0           0
           0           0           0           0           0           0
           0           0           0           0           0           0
           0           0
RotTr to input orientation                 R   N=          12
 -9.77746850E-01  1.24200643E-16  2.09788220E-01  2.09788220E-01 -2.66488527E-17
  9.77746850E-01  1.27027403E-16  1.00000000E+00  0.00000000E+00  2.28643840E+00
  0.00000000E+00  6.43238582E-01
Number of contracted shells                I               65
Number of primitive shells                 I              119
Pure/Cartesian d shells                    I                0
Pure/Cartesian f shells                    I                0
Highest angular momentum                   I                3
Largest degree of contraction              I                7
Shell types                                I   N=          65
           0           0           0           0           1           1
           1          -2          -2           0           0           0
           0           0           1           1           1           1
          -2          -2          -2          -3          -3           0
           0           0           0           0           1           1
           1           1          -2          -2          -2          -3
          -3           0           0           0           0           0
           1           1           1           1          -2          -2
          -2          -3          -3           0           0           0
           0           0           1           1           1           1
          -2          -2          -2          -3          -3
Number of primitives per shell             I   N=          65
           3           1           1           1           1           1
           1           1           1           7           6           1
           1           1           3           1           1           1
           1           1           1           1           1           7
           6           1           1           1           3           1
           1           1           1           1           1           1
           1           7           6           1           1           1
           3           1           1           1           1           1
           1           1           1           7           6           1
           1           1           3           1           1           1
           1           1           1           1           1
Shell to atom map                          I   N=          65
           1           1           1           1           1           1
           1           1           1           2           2           2
           2           2           2           2           2           2
           2           2           2           2           2           3
           3           3           3           3           3           3
           3           3           3           3           3           3
           3           4           4           4           4           4
           4           4           4           4           4           4
           4           4           4           5           5           5
           5           5           5           5           5           5
           5           5           5           5           5
Primitive exponents                        R   N=         119
  3.38700000E+01  5.09500000E+00  1.15900000E+00  3.25800000E-01  1.02700000E-01
  2.52600000E-02  1.40700000E+00  3.88000000E-01  1.02000000E-01  1.05700000E+00
  2.47000000E-01  1.53300000E+04  2.29900000E+03  5.22400000E+02  1.47300000E+02
  4.75500000E+01  1.67600000E+01  6.20700000E+00  5.22400000E+02  1.47300000E+02
  4.75500000E+01  1.67600000E+01  6.20700000E+00  6.88200000E-01  1.75200000E+00
  2.38400000E-01  7.37600000E-02  3.44600000E+01  7.74900000E+00  2.28000000E+00
  7.15600000E-01  2.14000000E-01  5.97400000E-02  2.31400000E+00  6.45000000E-01
  2.14000000E-01  1.42800000E+00  5.00000000E-01  1.53300000E+04  2.29900000E+03
  5.22400000E+02  1.47300000E+02  4.75500000E+01  1.67600000E+01  6.20700000E+00
  5.22400000E+02  1.47300000E+02  4.75500000E+01  1.67600000E+01  6.20700000E+00
  6.88200000E-01  1.75200000E+00  2.38400000E-01  7.37600000E-02  3.44600000E+01
  7.74900000E+00  2.28000000E+00  7.15600000E-01  2.14000000E-01  5.97400000E-02
  2.31400000E+00  6.45000000E-01  2.14000000E-01  1.42800000E+00  5.00000000E-01
  1.14200000E+04  1.71200000E+03  3.89300000E+02  1.10000000E+02  3.55700000E+01
  1.25400000E+01  4.64400000E+00  3.89300000E+02  1.10000000E+02  3.55700000E+01
  1.25400000E+01  4.64400000E+00  5.11800000E-01  1.29300000E+00  1.78700000E-01
  5.76000000E-02  2.66300000E+01  5.94800000E+00  1.74200000E+00  5.55000000E-01
  1.72500000E-01  4.91000000E-02  1.65400000E+00  4.69000000E-01  1.51000000E-01
  1.09300000E+00  3.64000000E-01  1.53300000E+04  2.29900000E+03  5.22400000E+02
  1.47300000E+02  4.75500000E+01  1.67600000E+01  6.20700000E+00  5.22400000E+02
  1.47300000E+02  4.75500000E+01  1.67600000E+01  6.20700000E+00  6.88200000E-01
  1.75200000E+00  2.38400000E-01  7.37600000E-02  3.44600000E+01  7.74900000E+00
  2.28000000E+00  7.15600000E-01  2.14000000E-01  5.97400000E-02  2.31400000E+00
  6.45000000E-01  2.14000000E-01  1.42800000E+00  5.00000000E-01
Contraction coefficients                   R   N=         119
  2.54948632E-02  1.90362766E-01  8.52162022E-01  1.00000000E+00  1.00000000E+00
  1.00000000E+00  1.00000000E+00  1.00000000E+00  1.00000000E+00  1.00000000E+00
  1.00000000E+00  5.19808943E-04  4.02025621E-03  2.07128267E-02  8.10105536E-02
  2.35962985E-01  4.42653446E-01  3.57064423E-01 -4.42115008E-05 -1.22591041E-03
 -1.05517725E-02 -6.74452633E-02 -1.71198607E-01  1.07329856E+00  1.00000000E+00
  1.00000000E+00  1.00000000E+00  4.11634896E-02  2.57762836E-01  8.02419274E-01
  1.00000000E+00  1.00000000E+00  1.00000000E+00  1.00000000E+00  1.00000000E+00
  1.00000000E+00  1.00000000E+00  1.00000000E+00  5.19808943E-04  4.02025621E-03
  2.07128267E-02  8.10105536E-02  2.35962985E-01  4.42653446E-01  3.57064423E-01
 -4.42115008E-05 -1.22591041E-03 -1.05517725E-02 -6.74452633E-02 -1.71198607E-01
  1.07329856E+00  1.00000000E+00  1.00000000E+00  1.00000000E+00  4.11634896E-02
  2.57762836E-01  8.02419274E-01  1.00000000E+00  1.00000000E+00  1.00000000E+00
  1.00000000E+00  1.00000000E+00  1.00000000E+00  1.00000000E+00  1.00000000E+00
  5.34563860E-04  4.13435660E-03  2.12335358E-02  8.25006224E-02  2.38138871E-01
  4.42551547E-01  3.53757422E-01 -4.89867350E-05 -1.19527323E-03 -1.03490714E-02
 -6.48680190E-02 -1.71552477E-01  1.07289568E+00  1.00000000E+00  1.00000000E+00
  1.00000000E+00  3.98072123E-02  2.49002660E-01  8.10479727E-01  1.00000000E+00
  1.00000000E+00  1.00000000E+00  1.00000000E+00  1.00000000E+00  1.00000000E+00
  1.00000000E+00  1.00000000E+00  5.19808943E-04  4.02025621E-03  2.07128267E-02
  8.10105536E-02  2.35962985E-01  4.42653446E-01  3.57064423E-01 -4.42115008E-05
 -1.22591041E-03 -1.05517725E-02 -6.74452633E-02 -1.71198607E-01  1.07329856E+00
  1.00000000E+00  1.00000000E+00  1.00000000E+00  4.11634896E-02  2.57762836E-01
  8.02419274E-01  1.00000000E+00  1.00000000E+00  1.00000000E+00  1.00000000E+00
  1.00000000E+00  1.00000000E+00  1.00000000E+00  1.00000000E+00
Coordinates of each shell                  R   N=         195
  2.10061406E+00 -1.10859234E+00  1.79156761E-33  2.10061406E+00 -1.10859234E+00
  1.79156761E-33  2.10061406E+00 -1.10859234E+00  1.79156761E-33  2.10061406E+00
 -1.10859234E+00  1.79156761E-33  2.10061406E+00 -1.10859234E+00  1.79156761E-33
  2.10061406E+00 -1.10859234E+00  1.79156761E-33  2.10061406E+00 -1.10859234E+00
  1.79156761E-33  2.10061406E+00 -1.10859234E+00  1.79156761E-33  2.10061406E+00
 -1.10859234E+00  1.79156761E-33  2.48646718E+00  6.89729203E-01 -3.33116913E-33
  2.48646718E+00  6.89729203E-01 -3.33116913E-33  2.48646718E+00  6.89729203E-01
 -3.33116913E-33  2.48646718E+00  6.89729203E-01 -3.33116913E-33  2.48646718E+00
  6.89729203E-01 -3.33116913E-33  2.48646718E+00  6.89729203E-01 -3.33116913E-33
  2.48646718E+00  6.89729203E-01 -3.33116913E-33  2.48646718E+00  6.89729203E-01
 -3.33116913E-33  2.48646718E+00  6.89729203E-01 -3.33116913E-33  2.48646718E+00
  6.89729203E-01 -3.33116913E-33  2.48646718E+00  6.89729203E-01 -3.33116913E-33
  2.48646718E+00  6.89729203E-01 -3.33116913E-33  2.48646718E+00  6.89729203E-01
 -3.33116913E-33  2.48646718E+00  6.89729203E-01 -3.33116913E-33 -2.22752920E-17
  1.73215912E+00 -4.71710266E-33 -2.22752920E-17  1.73215912E+00 -4.71710266E-33
 -2.22752920E-17  1.73215912E+00 -4.71710266E-33 -2.22752920E-17  1.73215912E+00
 -4.71710266E-33 -2.22752920E-17  1.73215912E+00 -4.71710266E-33 -2.22752920E-17
  1.73215912E+00 -4.71710266E-33 -2.22752920E-17  1.73215912E+00 -4.71710266E-33
 -2.22752920E-17  1.73215912E+00 -4.71710266E-33 -2.22752920E-17  1.73215912E+00
 -4.71710266E-33 -2.22752920E-17  1.73215912E+00 -4.71710266E-33 -2.22752920E-17
  1.73215912E+00 -4.71710266E-33 -2.22752920E-17  1.73215912E+00 -4.71710266E-33
 -2.22752920E-17  1.73215912E+00 -4.71710266E-33 -2.22752920E-17  1.73215912E+00
 -4.71710266E-33 -1.87371666E+00 -8.46631482E-02  1.32538753E-33 -1.87371666E+00
 -8.46631482E-02  1.32538753E-33 -1.87371666E+00 -8.46631482E-02  1.32538753E-33
 -1.87371666E+00 -8.46631482E-02  1.32538753E-33 -1.87371666E+00 -8.46631482E-02
  1.32538753E-33 -1.87371666E+00 -8.46631482E-02  1.32538753E-33 -1.87371666E+00
 -8.46631482E-02  1.32538753E-33 -1.87371666E+00 -8.46631482E-02  1.32538753E-33
 -1.87371666E+00 -8.46631482E-02  1.32538753E-33 -1.87371666E+00 -8.46631482E-02
  1.32538753E-33 -1.87371666E+00 -8.46631482E-02  1.32538753E-33 -1.87371666E+00
 -8.46631482E-02  1.32538753E-33 -1.87371666E+00 -8.46631482E-02  1.32538753E-33
 -1.87371666E+00 -8.46631482E-02  1.32538753E-33 -1.10954186E+00 -2.20923403E+00
  6.66461175E-33 -1.10954186E+00 -2.20923403E+00  6.66461175E-33 -1.10954186E+00
 -2.20923403E+00  6.66461175E-33 -1.10954186E+00 -2.20923403E+00  6.66461175E-33
 -1.10954186E+00 -2.20923403E+00  6.66461175E-33 -1.10954186E+00 -2.20923403E+00
  6.66461175E-33 -1.10954186E+00 -2.20923403E+00  6.66461175E-33 -1.10954186E+00
 -2.20923403E+00  6.66461175E-33 -1.10954186E+00 -2.20923403E+00  6.66461175E-33
 -1.10954186E+00 -2.20923403E+00  6.66461175E-33 -1.10954186E+00 -2.20923403E+00
  6.66461175E-33 -1.10954186E+00 -2.20923403E+00  6.66461175E-33 -1.10954186E+00
 -2.20923403E+00  6.66461175E-33 -1.10954186E+00 -2.20923403E+00  6.66461175E-33
Num ILSW                                   I              100
ILSW                                       I   N=         100
           0           0           0           0           2           0
           0           0           0           0           0          -1
           5           0           0           0           2           0
           0           0           0           0           1           0
           1           0           0           0           0           0
           0           0      100000           0          -1           0
           0           0           0           0           0           0
           0           0           0           1           1           0
           0 -2000000000           1           0           0           0
           0           0           4          52           0           0
           0           0           0           0           0           0
           0           0           0           5           4           1
           0           0           0           0           0           0
           0           0           0           0           0           0
           0           0           0           0           0           0
           0           0           0           0           0           0
           0           0           0           0
Num RLSW                                   I               52
RLSW                                       R   N=          52
  1.00000000E+00  1.00000000E+00  1.00000000E+00  1.00000000E+00  1.00000000E+00
  0.00000000E+00  0.00000000E+00  1.00000000E+00  0.00000000E+00  0.00000000E+00
  0.00000000E+00  0.00000000E+00  1.00000000E+00  0.00000000E+00  0.00000000E+00
  0.00000000E+00  0.00000000E+00  1.00000000E+00  0.00000000E+00  0.00000000E+00
  0.00000000E+00  0.00000000E+00  1.00000000E+00  0.00000000E+00  0.00000000E+00
  0.00000000E+00  0.00000000E+00  1.00000000E+00  0.00000000E+00  0.00000000E+00
  0.00000000E+00  0.00000000E+00  1.00000000E+00  0.00000000E+00  0.00000000E+00
  0.00000000E+00  0.00000000E+00  0.00000000E+00  1.00000000E+00  1.00000000E+00
  0.00000000E+00  1.00000000E+00  0.00000000E+00  0.00000000E+00  0.00000000E+00
  0.00000000E+00  0.00000000E+00  0.00000000E+00  0.00000000E+00  0.00000000E+00
  0.00000000E+00  0.00000000E+00
MxBond                                     I                2
NBond                                      I   N=           5
           1           2           2           2           1
IBond                                      I   N=          10
           2           0           1           3           2           4
           3           5           4           0
RBond                                      R   N=          10
  1.00000000E+00  0.00000000E+00  1.00000000E+00  1.00000000E+00  1.00000000E+00
  1.00000000E+00  1.00000000E+00  2.00000000E+00  2.00000000E+00  0.00000000E+00
Virial Ratio                               R      2.002153011850855E+00
SCF Energy                                 R     -2.795070346344080E+02
MP2 Energy                                 R     -2.804551223103492E+02
Total Energy                               R     -2.804551223103492E+02
Post-SCF wavefunction norm                 R      1.583395441277355E+00
RMS Force                                  R      3.770271392664966E-03
RMS Density                                R      4.253851159610347E-09
NImag                                      I                1
Job Status                                 I                1
Nuclear derivative order                   I                2
External E-field                           R   N=          35
  0.00000000E+00  0.00000000E+00  0.00000000E+00  0.00000000E+00  0.00000000E+00
  0.00000000E+00  0.00000000E+00  0.00000000E+00  0.00000000E+00  0.00000000E+00
  0.00000000E+00  0.00000000E+00  0.00000000E+00  0.00000000E+00  0.00000000E+00
  0.00000000E+00  0.00000000E+00  0.00000000E+00  0.00000000E+00  0.00000000E+00
  0.00000000E+00  0.00000000E+00  0.00000000E+00  0.00000000E+00  0.00000000E+00
  0.00000000E+00  0.00000000E+00  0.00000000E+00  0.00000000E+00  0.00000000E+00
  0.00000000E+00  0.00000000E+00  0.00000000E+00  0.00000000E+00  0.00000000E+00
IOpCl                                      I                0
IROHF                                      I                0
Alpha Orbital Energies                     R   N=         207
 -2.07199861E+01 -2.06871297E+01 -2.06678613E+01 -1.58260305E+01 -1.64451151E+00
 -1.50620583E+00 -1.29601170E+00 -9.61104749E-01 -8.35262903E-01 -7.59075169E-01
 -7.40173513E-01 -6.40087191E-01 -6.19104872E-01 -6.18651389E-01 -5.04579940E-01
 -4.98026018E-01  3.51591113E-02  6.03072573E-02  9.50458769E-02  1.00413864E-01
  1.19624235E-01  1.22572927E-01  1.49534085E-01  1.52131661E-01  1.77323295E-01
  1.80284702E-01  1.89747405E-01  2.11162453E-01  2.16827931E-01  2.42133514E-01
  2.46318707E-01  2.69011182E-01  3.14174242E-01  3.17107137E-01  3.37854744E-01
  3.43783862E-01  3.46593703E-01  3.92588017E-01  4.50789925E-01  4.89640958E-01
  5.05193920E-01  5.18455565E-01  5.45747107E-01  5.61051826E-01  5.99626480E-01
  6.21107290E-01  6.38863217E-01  6.89557702E-01  7.16465001E-01  7.24571254E-01
  7.43393083E-01  7.63392125E-01  7.67102307E-01  7.95875679E-01  8.06592764E-01
  8.40807620E-01  8.43037686E-01  8.51431426E-01  8.85067832E-01  9.07110070E-01
  9.29606361E-01  9.48055523E-01  9.54546992E-01  1.01856086E+00  1.03268775E+00
  1.06281843E+00  1.06695635E+00  1.09602037E+00  1.14463648E+00  1.15702373E+00
  1.16936238E+00  1.22179538E+00  1.22716825E+00  1.24576270E+00  1.35477344E+00
  1.36340227E+00  1.37168718E+00  1.46805467E+00  1.48981866E+00  1.50459109E+00
  1.54452951E+00  1.59731939E+00  1.59859086E+00  1.60560695E+00  1.62871233E+00
  1.69531886E+00  1.74164564E+00  1.80165597E+00  1.82997488E+00  1.88817409E+00
  1.89692571E+00  1.92781473E+00  1.97891572E+00  1.99510023E+00  2.05251662E+00
  2.12473431E+00  2.13235844E+00  2.16712800E+00  2.18881058E+00  2.24337184E+00
  2.25828752E+00  2.29444493E+00  2.35186391E+00  2.36457946E+00  2.38843778E+00
  2.40274452E+00  2.43321717E+00  2.46753462E+00  2.48056813E+00  2.52911376E+00
  2.53993746E+00  2.54901917E+00  2.55909636E+00  2.61634919E+00  2.62833988E+00
  2.67292847E+00  2.67362290E+00  2.75434045E+00  2.80973392E+00  2.81488090E+00
  2.84148230E+00  2.91887008E+00  2.98549094E+00  3.04626464E+00  3.05092958E+00
  3.11592467E+00  3.11815523E+00  3.17567491E+00  3.21247947E+00  3.30757705E+00
  3.33421667E+00  3.36261562E+00  3.48004243E+00  3.67844778E+00  3.87028867E+00
  3.94245113E+00  4.19409273E+00  4.22591192E+00  4.22786248E+00  4.26854884E+00
  4.37032628E+00  4.50098396E+00  4.53255428E+00  4.55705349E+00  4.60436035E+00
  4.69350793E+00  4.82113573E+00  4.89954913E+00  4.91438935E+00  4.95183895E+00
  5.00195030E+00  5.00611294E+00  5.10857899E+00  5.14092509E+00  5.19595749E+00
  5.25854204E+00  5.27846131E+00  5.32878076E+00  5.34645875E+00  5.36893408E+00
  5.54830093E+00  5.64486051E+00  5.70610246E+00  5.88980229E+00  5.99982350E+00
  6.26513994E+00  6.29177437E+00  6.36038170E+00  6.37857702E+00  6.59983866E+00
  6.65847256E+00  6.66018556E+00  6.69049052E+00  6.72615363E+00  6.79822733E+00
  6.80500681E+00  6.85195803E+00  6.96780668E+00  7.03079057E+00  7.06600095E+00
  7.08902036E+00  7.14162901E+00  7.17491994E+00  7.17659041E+00  7.21610000E+00
  7.25091007E+00  7.25192169E+00  7.27026304E+00  7.34897047E+00  7.39483766E+00
  7.43549248E+00  7.44242863E+00  7.46835309E+00  7.56096401E+00  7.66390258E+00
  7.66841733E+00  7.80658021E+00  7.88898407E+00  7.95374360E+00  8.06543880E+00
  8.31510967E+00  8.51291120E+00  8.65665626E+00  1.36231207E+01  1.48110638E+01
  1.52358966E+01  1.57639349E+01
Alpha MO coefficients                      R   N=       42849
  6.60325378E-05 -1.79710744E-05 -1.17045744E-03  1.20370809E-05 -5.10345263E-05
  4.19643873E-05  0.00000000E+00 -1.05932919E-04 -2.79269807E-04  0.00000000E+00
 -4.22670153E-06 -3.49737165E-04  0.00000000E+00  4.24072472E-05  0.00000000E+00
  0.00000000E+00 -2.82113823E-05  1.37480955E-05  2.34832385E-04  0.00000000E+00
  0.00000000E+00 -5.50787794E-05 -2.27683170E-04  3.03092893E-03 -9.67742400E-05
 -1.00687664E-04  3.54670798E-03  2.51138033E-03  1.02677651E-04 -5.36568311E-05
  0.00000000E+00 -7.27764895E-04  2.91239749E-04  0.00000000E+00 -1.94504941E-03
  1.10903364E-03  0.00000000E+00 -5.40559394E-04  3.16946959E-05  0.00000000E+00
  2.10828079E-05  0.00000000E+00  0.00000000E+00 -8.87055672E-06  4.46868818E-05
 -4.44161415E-04  0.00000000E+00  0.00000000E+00  4.32497347E-04 -6.68369268E-04
 -3.66091600E-04  0.00000000E+00  0.00000000E+00  5.41077722E-04 -7.56387418E-04
  0.00000000E+00  7.42830736E-05 -5.33170620E-05  0.00000000E+00  0.00000000E+00
 -2.78945535E-05  1.07801012E-04  0.00000000E+00  2.07396664E-04 -4.82580507E-05
  0.00000000E+00  0.00000000E+00 -1.75497240E-04  3.01207831E-04  9.76903724E-01
 -9.17319525E-03  4.34081531E-02  4.97360731E-04 -2.21164432E-03  4.52368800E-04
 -2.14859893E-03  0.00000000E+00 -3.24787552E-04  2.25441143E-03  0.00000000E+00
 -2.31335451E-03 -4.81082069E-04  0.00000000E+00 -2.22157291E-04  9.99154265E-05
  0.00000000E+00  7.32118505E-06  0.00000000E+00  0.00000000E+00 -5.22254224E-06
  3.77995760E-05  8.28008336E-04  0.00000000E+00  0.00000000E+00 -4.75910133E-04
 -1.67592694E-04 -1.36681042E-04  0.00000000E+00  0.00000000E+00 -5.48964136E-04
  3.50933685E-04  0.00000000E+00 -5.97082552E-06 -7.92133115E-05  0.00000000E+00
  0.00000000E+00 -8.98665102E-06  4.82830770E-05  0.00000000E+00  9.15820372E-05
 -2.63872212E-07  0.00000000E+00  0.00000000E+00 -3.35799160E-04  3.82166151E-04
  1.04662821E-04  4.59362703E-04 -3.23412594E-04 -7.99445179E-04  3.52368901E-04
 -4.41046929E-05 -9.99391266E-05  0.00000000E+00  6.98423411E-04  1.11153504E-03
  0.00000000E+00 -7.61266525E-04 -6.73575513E-04  0.00000000E+00  1.92482279E-04
  2.10818214E-04  0.00000000E+00 -5.24530822E-05  0.00000000E+00  0.00000000E+00
  1.93050206E-05  9.31345246E-05 -4.16176094E-04  0.00000000E+00  0.00000000E+00
  4.00101895E-05  1.08017773E-03  2.65077987E-05  0.00000000E+00  0.00000000E+00
 -3.16983531E-04  2.42181734E-05  0.00000000E+00 -7.85715284E-05 -1.13591768E-04
  0.00000000E+00  0.00000000E+00 -9.65856679E-05  1.05736789E-04  0.00000000E+00
 -1.24151515E-04  4.73284090E-05  0.00000000E+00  0.00000000E+00  1.67632669E-05
  5.20094892E-04 -6.99991304E-04  4.49319469E-05 -6.99145622E-05  2.06383964E-04
 -1.76421570E-04 -2.86598681E-05 -4.14992377E-05  0.00000000E+00  1.67203807E-04
  2.53997379E-04  0.00000000E+00  5.53494812E-04  3.18786288E-04  0.00000000E+00
 -2.14256159E-04 -6.30703695E-05  0.00000000E+00 -1.29856730E-05  0.00000000E+00
  0.00000000E+00  3.22971046E-06  1.52533442E-05 -2.07534180E-06  0.00000000E+00
  0.00000000E+00 -1.63669318E-04  1.02400091E-05 -2.41258997E-05  0.00000000E+00
  0.00000000E+00 -1.63000548E-04 -3.51020954E-05  0.00000000E+00 -5.72764056E-06
 -9.06997991E-06  0.00000000E+00  0.00000000E+00 -2.17621596E-05  9.38172386E-06
  0.00000000E+00  3.94852150E-05  6.10960133E-05  0.00000000E+00  0.00000000E+00
  1.58544713E-04 -1.03306235E-04  4.05313520E-05  6.75222258E-05 -1.31364776E-04
 -3.04611003E-05  1.83585469E-05  9.29091314E-06  0.00000000E+00  2.39801659E-04
  6.64627501E-05  0.00000000E+00  1.24229913E-04  2.27178623E-05  0.00000000E+00
  1.38395698E-05  0.00000000E+00  0.00000000E+00 -1.26849627E-05  1.54305221E-05
  2.33689855E-05  0.00000000E+00  0.00000000E+00 -1.01491883E-04  6.00030065E-05
 -2.51173382E-04  2.38405615E-05 -1.49002455E-05 -5.69038154E-04  1.67212150E-04
  7.42317347E-06  1.35850994E-05  0.00000000E+00 -9.50820807E-07 -4.03249216E-05
  0.00000000E+00  1.99062978E-04  1.25848013E-04  0.00000000E+00 -4.66336656E-05
  4.55039797E-05  0.00000000E+00 -1.38495661E-06  0.00000000E+00  0.00000000E+00
 -8.23790182E-06 -1.18317423E-05  2.10024068E-05  0.00000000E+00  0.00000000E+00
  4.96425940E-05  1.09809923E-04  6.14673856E-05  0.00000000E+00  0.00000000E+00
 -3.30763010E-05 -8.07472573E-05  0.00000000E+00  7.85888964E-06  1.03315968E-05
  0.00000000E+00  0.00000000E+00 -8.90264257E-07 -2.48238787E-05  0.00000000E+00
 -1.43604757E-05 -3.48526110E-05  0.00000000E+00  0.00000000E+00 -3.07719486E-06
 -1.94769619E-05  7.27651544E-04  2.19010142E-05 -1.91868137E-05  3.02569678E-04
 -3.94419186E-04  1.65132747E-05  2.72071050E-05  0.00000000E+00 -6.60998576E-05
 -1.53065822E-04  0.00000000E+00  1.68744447E-04 -2.06953566E-04  0.00000000E+00
 -1.55123590E-04  1.43297227E-04  0.00000000E+00 -3.99097360E-06  0.00000000E+00
  0.00000000E+00 -2.95237121E-05 -9.81293112E-06 -5.17443727E-05  0.00000000E+00
  0.00000000E+00  8.01420892E-05  1.21602660E-04 -6.56027583E-05  0.00000000E+00
  0.00000000E+00  4.13030312E-05  2.15256199E-05  0.00000000E+00  3.06370697E-06
  3.28511551E-06  0.00000000E+00  0.00000000E+00 -7.78314273E-06 -2.37619125E-06
  0.00000000E+00  3.19556922E-06 -2.49142683E-05  0.00000000E+00  0.00000000E+00
  9.58704318E-05 -1.54200267E-04  2.37290182E-04  1.35884190E-03 -1.47350874E-04
 -6.72186221E-04  9.08661037E-04  6.32629099E-05 -7.09727728E-05  0.00000000E+00
  5.71846757E-04 -2.08459918E-03  0.00000000E+00  1.18455498E-04  5.00655464E-04
  0.00000000E+00  1.85981229E-04 -3.06857333E-04  0.00000000E+00 -1.27768816E-04
  0.00000000E+00  0.00000000E+00 -2.04099294E-04 -1.58536507E-04 -4.61364734E-04
  0.00000000E+00  0.00000000E+00 -6.04673880E-04 -9.19784116E-04 -4.32245916E-05
  0.00000000E+00  0.00000000E+00  5.99933997E-05  1.18107411E-04  0.00000000E+00
  8.48273479E-06  3.69272725E-05  0.00000000E+00  0.00000000E+00 -2.46125225E-05
 -3.85804289E-06  0.00000000E+00 -1.35528742E-04  1.58308413E-04  0.00000000E+00
  0.00000000E+00 -3.15310639E-04 -3.38085122E-05  9.76646046E-01 -9.88750945E-03
  4.35753644E-02  3.68510902E-03 -8.97468426E-04 -4.51016797E-04  2.13189751E-03
  0.00000000E+00  5.14485855E-04 -2.50714920E-03  0.00000000E+00 -6.71313664E-05
  8.13256903E-04  0.00000000E+00  1.04906689E-04 -6.49999805E-05  0.00000000E+00
 -1.94276017E-04  0.00000000E+00  0.00000000E+00 -7.41698143E-05 -4.35970079E-05
  4.08942386E-04  0.00000000E+00  0.00000000E+00  8.59690501E-04  4.84812798E-04
 -2.05805714E-04  0.00000000E+00  0.00000000E+00 -1.39111116E-04 -3.51165319E-05
  0.00000000E+00 -4.70516910E-06  7.04270410E-05  0.00000000E+00  0.00000000E+00
 -2.92167876E-05  1.05048672E-05  0.00000000E+00 -8.95110294E-05  9.16886971E-05
  0.00000000E+00  0.00000000E+00 -1.66417034E-04  2.05398351E-04  4.02837153E-04
  1.74050803E-03  1.17389655E-03 -2.28752843E-05  4.30285581E-05  2.40745342E-04
  0.00000000E+00  3.51036236E-04  9.07412257E-04  0.00000000E+00 -1.35891041E-04
  1.76559282E-04  0.00000000E+00 -1.67076964E-07  0.00000000E+00  0.00000000E+00
  6.85870127E-05 -4.94379140E-05 -2.10746076E-04  0.00000000E+00  0.00000000E+00
 -3.42287456E-04  3.97013386E-04  9.76829121E-01 -9.15765148E-03  4.34763689E-02
  3.21356740E-04 -1.72580265E-03 -2.04381725E-03 -8.38706783E-04  0.00000000E+00
  2.06656491E-03  6.99716003E-04  0.00000000E+00 -3.87784922E-04  4.73057627E-04
  0.00000000E+00  2.04343487E-04 -3.16338619E-04  0.00000000E+00  2.52789956E-05
  0.00000000E+00  0.00000000E+00 -8.15149289E-05  6.74049544E-05  7.48389349E-04
  0.00000000E+00  0.00000000E+00 -2.41838167E-04  3.63744798E-04 -2.49140827E-04
  0.00000000E+00  0.00000000E+00  2.99637149E-04  1.76625463E-05  0.00000000E+00
 -7.91656376E-05  8.18611841E-06  0.00000000E+00  0.00000000E+00  2.18711504E-05