 Entering Gaussian System, Link 0=g16
 Input=hoono_r1_0p999678.gjf
 Output=hoono_r1_0p999678.log
 Initial command:
 /sw/contrib/gaussian/g16/B01/g16/l1.exe "/scr/Gau-14952.inp" -scrdir="/scr/"
 Entering Link 1 = /sw/contrib/gaussian/g16/B01/g16/l1.exe PID=     14953.
  
 Copyright (c) 1988-2017, Gaussian, Inc.  All Rights Reserved.
  
 This is part of the Gaussian(R) 16 program.  It is based on
 the Gaussian(R) 09 system (copyright 2009, Gaussian, Inc.),
 the Gaussian(R) 03 system (copyright 2003, Gaussian, Inc.),
 the Gaussian(R) 98 system (copyright 1998, Gaussian, Inc.),
 the Gaussian(R) 94 system (copyright 1995, Gaussian, Inc.),
 the Gaussian 92(TM) system (copyright 1992, Gaussian, Inc.),
 the Gaussian 90(TM) system (copyright 1990, Gaussian, Inc.),
 the Gaussian 88(TM) system (copyright 1988, Gaussian, Inc.),
 the Gaussian 86(TM) system (copyright 1986, Carnegie Mellon
 University), and the Gaussian 82(TM) system (copyright 1983,
 Carnegie Mellon University). Gaussian is a federally registered
 trademark of Gaussian, Inc.
  
 This software contains proprietary and confidential information,
 including trade secrets, belonging to Gaussian, Inc.
  
 This software is provided under written license and may be
 used, copied, transmitted, or stored only in accord with that
 written license.
  
 The following legend is applicable only to US Government
 contracts under FAR:
  
                    RESTRICTED RIGHTS LEGEND
  
 Use, reproduction and disclosure by the US Government is
 subject to restrictions as set forth in subparagraphs (a)
 and (c) of the Commercial Computer Software - Restricted
 Rights clause in FAR 52.227-19.
  
 Gaussian, Inc.
 340 Quinnipiac St., Bldg. 40, Wallingford CT 06492
  
  
 ---------------------------------------------------------------
 Warning -- This program may not be used in any manner that
 competes with the business of Gaussian, Inc. or will provide
 assistance to any competitor of Gaussian, Inc.  The licensee
 of this program is prohibited from giving any competitor of
 Gaussian, Inc. access to this program.  By using this program,
 the user acknowledges that Gaussian, Inc. is engaged in the
 business of creating and licensing software in the field of
 computational chemistry and represents and warrants to the
 licensee that it is not a competitor of Gaussian, Inc. and that
 it will not use this program in any manner prohibited above.
 ---------------------------------------------------------------
  

 Cite this work as:
 Gaussian 16, Revision B.01,
 M. J. Frisch, G. W. Trucks, H. B. Schlegel, G. E. Scuseria, 
 M. A. Robb, J. R. Cheeseman, G. Scalmani, V. Barone, 
 G. A. Petersson, H. Nakatsuji, X. Li, M. Caricato, A. V. Marenich, 
 J. Bloino, B. G. Janesko, R. Gomperts, B. Mennucci, H. P. Hratchian, 
 J. V. Ortiz, A. F. Izmaylov, J. L. Sonnenberg, D. Williams-Young, 
 F. Ding, F. Lipparini, F. Egidi, J. Goings, B. Peng, A. Petrone, 
 T. Henderson, D. Ranasinghe, V. G. Zakrzewski, J. Gao, N. Rega, 
 G. Zheng, W. Liang, M. Hada, M. Ehara, K. Toyota, R. Fukuda, 
 J. Hasegawa, M. Ishida, T. Nakajima, Y. Honda, O. Kitao, H. Nakai, 
 T. Vreven, K. Throssell, J. A. Montgomery, Jr., J. E. Peralta, 
 F. Ogliaro, M. J. Bearpark, J. J. Heyd, E. N. Brothers, K. N. Kudin, 
 V. N. Staroverov, T. A. Keith, R. Kobayashi, J. Normand, 
 K. Raghavachari, A. P. Rendell, J. C. Burant, S. S. Iyengar, 
 J. Tomasi, M. Cossi, J. M. Millam, M. Klene, C. Adamo, R. Cammi, 
 J. W. Ochterski, R. L. Martin, K. Morokuma, O. Farkas, 
 J. B. Foresman, and D. J. Fox, Gaussian, Inc., Wallingford CT, 2016.
 
 ******************************************
 Gaussian 16:  ES64L-G16RevB.01 20-Dec-2017
                 6-Mar-2022 
 ******************************************
 %nproc=28
 Will use up to   28 processors via shared memory.
 %mem=120GB
 %chk=hoono_r1_0p999678.chk
 ---------------------------------------
 #p freq mp2/aug-cc-pvtz density=current
 ---------------------------------------
 1/10=4,30=1,38=1/1,3;
 2/12=2,17=6,18=5,40=1/2;
 3/5=16,6=1,7=10,11=9,25=1,30=1,71=2,140=1/1,2,3;
 4//1;
 5/5=2,38=5,98=1/2;
 8/6=3,8=1,10=1,19=11,30=-1/1;
 9/15=3,16=-3/6;
 11/6=1,8=1,15=11,17=12,24=-1,27=1,28=-2,29=300,32=6,42=3/1,2,10;
 10/6=2,21=1/2;
 8/6=4,8=1,10=1,19=11,30=-1/11,4;
 10/5=1,20=4/2;
 11/12=2,14=11,16=1,17=2,28=-2,42=3,76=2/2,10,12;
 6/7=2,8=2,9=2,10=2,22=-1/1;
 7/8=1,10=1,12=2,25=1,44=2/1,2,3,16;
 1/10=4,30=1/3;
 99//99;
 Leave Link    1 at Sun Mar  6 18:46:25 2022, MaxMem= 16106127360 cpu:               2.2 elap:               0.1
 (Enter /sw/contrib/gaussian/g16/B01/g16/l101.exe)
 -----
 title
 -----
 Symbolic Z-matrix:
 Charge =  0 Multiplicity = 1
 H
 O                    1    r1
 O                    2    r2       1    a1
 N                    3    r3       2    a2       1    d1       0
 O                    4    r4       3    a3       2    d2       0
       Variables:
  r1                    0.99968                  
  r2                    1.42674                  
  r3                    1.38111                  
  r4                    1.19479                  
  a1                  100.63551                  
  a2                  113.13777                  
  a3                  114.33392                  
  d1                    0.                       
  d2                    0.                       
 
 ITRead=  0  0  0  0  0
 MicOpt= -1 -1 -1 -1 -1
 NAtoms=      5 NQM=        5 NQMF=       0 NMMI=      0 NMMIF=      0
                NMic=       0 NMicF=      0.
                    Isotopes and Nuclear Properties:
 (Nuclear quadrupole moments (NQMom) in fm**2, nuclear magnetic moments (NMagM)
  in nuclear magnetons)

  Atom         1           2           3           4           5
 IAtWgt=           1          16          16          14          16
 AtmWgt=   1.0078250  15.9949146  15.9949146  14.0030740  15.9949146
 NucSpn=           1           0           0           2           0
 AtZEff=  -0.0000000  -0.0000000  -0.0000000  -0.0000000  -0.0000000
 NQMom=    0.0000000   0.0000000   0.0000000   2.0440000   0.0000000
 NMagM=    2.7928460   0.0000000   0.0000000   0.4037610   0.0000000
 AtZNuc=   1.0000000   8.0000000   8.0000000   7.0000000   8.0000000
 Leave Link  101 at Sun Mar  6 18:46:25 2022, MaxMem= 16106127360 cpu:               2.8 elap:               0.1
 (Enter /sw/contrib/gaussian/g16/B01/g16/l103.exe)

 GradGradGradGradGradGradGradGradGradGradGradGradGradGradGradGradGradGrad
 Berny optimization.
 Initialization pass.
                       ----------------------------
                       !    Initial Parameters    !
                       ! (Angstroms and Degrees)  !
 ----------------------                            ----------------------
 !      Name          Value   Derivative information (Atomic Units)     !
 ------------------------------------------------------------------------
 !       r1          0.9997   calculate D2E/DX2 analytically            !
 !       r2          1.4267   calculate D2E/DX2 analytically            !
 !       r3          1.3811   calculate D2E/DX2 analytically            !
 !       r4          1.1948   calculate D2E/DX2 analytically            !
 !       a1        100.6355   calculate D2E/DX2 analytically            !
 !       a2        113.1378   calculate D2E/DX2 analytically            !
 !       a3        114.3339   calculate D2E/DX2 analytically            !
 !       d1          0.0      calculate D2E/DX2 analytically            !
 !       d2          0.0      calculate D2E/DX2 analytically            !
 ------------------------------------------------------------------------
 Trust Radius=3.00D-01 FncErr=1.00D-07 GrdErr=1.00D-07 EigMax=2.50D+02 EigMin=1.00D-04
 Number of steps in this run=      2 maximum allowed number of steps=      2.
 GradGradGradGradGradGradGradGradGradGradGradGradGradGradGradGradGradGrad

 Leave Link  103 at Sun Mar  6 18:46:25 2022, MaxMem= 16106127360 cpu:               1.3 elap:               0.1
 (Enter /sw/contrib/gaussian/g16/B01/g16/l202.exe)
                          Input orientation:                          
 ---------------------------------------------------------------------
 Center     Atomic      Atomic             Coordinates (Angstroms)
 Number     Number       Type             X           Y           Z
 ---------------------------------------------------------------------
      1          1           0        0.000000    0.000000    0.000000
      2          8           0        0.000000    0.000000    0.999678
      3          8           0        1.402227    0.000000    1.262997
      4          7           0        2.169996    0.000000    0.114960
      5          8           0        1.538751    0.000000   -0.899461
 ---------------------------------------------------------------------
                    Distance matrix (angstroms):
                    1          2          3          4          5
     1  H    0.000000
     2  O    0.999678   0.000000
     3  O    1.887168   1.426737   0.000000
     4  N    2.173039   2.343418   1.381108   0.000000
     5  O    1.782354   2.444276   2.166763   1.194788   0.000000
 Stoichiometry    HNO3
 Framework group  CS[SG(HNO3)]
 Deg. of freedom     7
 Full point group                 CS      NOp   2
 Largest Abelian subgroup         CS      NOp   2
 Largest concise Abelian subgroup C1      NOp   1
                         Standard orientation:                         
 ---------------------------------------------------------------------
 Center     Atomic      Atomic             Coordinates (Angstroms)
 Number     Number       Type             X           Y           Z
 ---------------------------------------------------------------------
      1          1           0        1.106349   -0.611428    0.000000
      2          8           0        1.315886    0.366043    0.000000
      3          8           0        0.000000    0.917425    0.000000
      4          7           0       -0.991347   -0.044182    0.000000
      5          8           0       -0.586751   -1.168381    0.000000
 ---------------------------------------------------------------------
 Rotational constants (GHZ):          21.3310212           8.1087355           5.8753070
 Leave Link  202 at Sun Mar  6 18:46:25 2022, MaxMem= 16106127360 cpu:               1.7 elap:               0.1
 (Enter /sw/contrib/gaussian/g16/B01/g16/l301.exe)
 Standard basis: Aug-CC-pVTZ (5D, 7F)
 Ernie: Thresh=  0.10000D-02 Tol=  0.10000D-05 Strict=F.
 Ernie:  12 primitive shells out of 131 were deleted.
 There are   166 symmetry adapted cartesian basis functions of A'  symmetry.
 There are    79 symmetry adapted cartesian basis functions of A"  symmetry.
 There are   136 symmetry adapted basis functions of A'  symmetry.
 There are    71 symmetry adapted basis functions of A"  symmetry.
   207 basis functions,   315 primitive gaussians,   245 cartesian basis functions
    16 alpha electrons       16 beta electrons
       nuclear repulsion energy       122.6865399254 Hartrees.
 IExCor=    0 DFT=F Ex=HF Corr=None ExCW=0 ScaHFX=  1.000000
 ScaDFX=  1.000000  1.000000  1.000000  1.000000 ScalE2=  1.000000  1.000000
 IRadAn=      5 IRanWt=     -1 IRanGd=            0 ICorTp=0 IEmpDi=  4
 NAtoms=    5 NActive=    5 NUniq=    5 SFac= 1.00D+00 NAtFMM=   60 NAOKFM=F Big=F
 Integral buffers will be    131072 words long.
 Raffenetti 1 integral format.
 Two-electron integral symmetry is turned on.
 Leave Link  301 at Sun Mar  6 18:46:26 2022, MaxMem= 16106127360 cpu:               1.5 elap:               0.1
 (Enter /sw/contrib/gaussian/g16/B01/g16/l302.exe)
 NPDir=0 NMtPBC=     1 NCelOv=     1 NCel=       1 NClECP=     1 NCelD=      1
         NCelK=      1 NCelE2=     1 NClLst=     1 CellRange=     0.0.
 One-electron integrals computed using PRISM.
 One-electron integral symmetry used in STVInt
 NBasis=   207 RedAO= T EigKep=  1.31D-04  NBF=   136    71
 NBsUse=   207 1.00D-06 EigRej= -1.00D+00 NBFU=   136    71
 Leave Link  302 at Sun Mar  6 18:46:26 2022, MaxMem= 16106127360 cpu:               7.9 elap:               0.3
 (Enter /sw/contrib/gaussian/g16/B01/g16/l303.exe)
 DipDrv:  MaxL=1.
 Leave Link  303 at Sun Mar  6 18:46:26 2022, MaxMem= 16106127360 cpu:               0.8 elap:               0.1
 (Enter /sw/contrib/gaussian/g16/B01/g16/l401.exe)
 ExpMin= 2.53D-02 ExpMax= 1.53D+04 ExpMxC= 5.22D+02 IAcc=3 IRadAn=         5 AccDes= 0.00D+00
 Harris functional with IExCor=  205 and IRadAn=       5 diagonalized for initial guess.
 HarFok:  IExCor=  205 AccDes= 0.00D+00 IRadAn=         5 IDoV= 1 UseB2=F ITyADJ=14
 ICtDFT=  3500011 ScaDFX=  1.000000  1.000000  1.000000  1.000000
 FoFCou: FMM=F IPFlag=           0 FMFlag=      100000 FMFlg1=           0
         NFxFlg=           0 DoJE=T BraDBF=F KetDBF=T FulRan=T
         wScrn=  0.000000 ICntrl=       500 IOpCl=  0 I1Cent=   200000004 NGrid=           0
         NMat0=    1 NMatS0=      1 NMatT0=    0 NMatD0=    1 NMtDS0=    0 NMtDT0=    0
 Petite list used in FoFCou.
 Harris En= -279.644779280011    
 JPrj=0 DoOrth=F DoCkMO=F.
 Initial guess orbital symmetries:
       Occupied  (A') (A') (A') (A') (A') (A') (A') (A') (A') (A')
                 (A") (A') (A") (A') (A") (A')
       Virtual   (A") (A') (A') (A') (A') (A") (A') (A') (A') (A')
                 (A") (A') (A") (A') (A') (A") (A') (A') (A") (A')
                 (A') (A') (A') (A') (A") (A') (A') (A') (A") (A')
                 (A') (A") (A") (A') (A') (A") (A') (A") (A') (A")
                 (A') (A") (A') (A") (A') (A') (A') (A") (A') (A')
                 (A') (A") (A') (A") (A') (A") (A') (A') (A') (A")
                 (A') (A') (A") (A') (A') (A') (A") (A") (A') (A')
                 (A") (A') (A") (A") (A') (A') (A') (A") (A') (A')
                 (A") (A') (A') (A") (A') (A") (A') (A") (A') (A')
                 (A') (A") (A') (A") (A') (A') (A") (A') (A") (A')
                 (A") (A') (A') (A") (A") (A') (A') (A') (A") (A')
                 (A") (A') (A') (A') (A") (A') (A') (A') (A") (A')
                 (A") (A') (A') (A") (A") (A") (A") (A') (A') (A')
                 (A') (A') (A') (A") (A') (A") (A') (A") (A') (A")
                 (A') (A') (A") (A') (A') (A") (A') (A') (A') (A")
                 (A') (A') (A') (A") (A') (A") (A") (A') (A') (A")
                 (A') (A") (A") (A') (A") (A') (A') (A") (A") (A')
                 (A") (A") (A") (A') (A') (A") (A') (A') (A') (A")
                 (A') (A') (A') (A') (A') (A') (A') (A') (A') (A')
                 (A')
 The electronic state of the initial guess is 1-A'.
 Leave Link  401 at Sun Mar  6 18:46:26 2022, MaxMem= 16106127360 cpu:               7.0 elap:               0.3
 (Enter /sw/contrib/gaussian/g16/B01/g16/l502.exe)
 Keep R1 ints in memory in symmetry-blocked form, NReq=348887737.
 FoFCou: FMM=F IPFlag=           0 FMFlag=           0 FMFlg1=           0
         NFxFlg=           0 DoJE=F BraDBF=F KetDBF=F FulRan=T
         wScrn=  0.000000 ICntrl=       600 IOpCl=  0 I1Cent=           0 NGrid=           0
         NMat0=    1 NMatS0=  21528 NMatT0=    0 NMatD0=    1 NMtDS0=    0 NMtDT0=    0
 Petite list used in FoFCou.
 Closed shell SCF:
 Using DIIS extrapolation, IDIIS=  1040.
 NGot= 16106127360 LenX= 15988850015 LenY= 15988789549
 Requested convergence on RMS density matrix=1.00D-08 within 128 cycles.
 Requested convergence on MAX density matrix=1.00D-06.
 Requested convergence on             energy=1.00D-06.
 No special actions if energy rises.

 Cycle   1  Pass 1  IDiag  1:
 E= -279.364159751063    
 DIIS: error= 2.69D-02 at cycle   1 NSaved=   1.
 NSaved= 1 IEnMin= 1 EnMin= -279.364159751063     IErMin= 1 ErrMin= 2.69D-02
 ErrMax= 2.69D-02  0.00D+00 EMaxC= 1.00D-01 BMatC= 4.49D-01 BMatP= 4.49D-01
 IDIUse=3 WtCom= 7.31D-01 WtEn= 2.69D-01
 Coeff-Com:  0.100D+01
 Coeff-En:   0.100D+01
 Coeff:      0.100D+01
 Gap=     0.497 Goal=   None    Shift=    0.000
 GapD=    0.497 DampG=2.000 DampE=0.500 DampFc=1.0000 IDamp=-1.
 RMSDP=1.67D-03 MaxDP=8.79D-02              OVMax= 1.22D-01

 Cycle   2  Pass 1  IDiag  1:
 E= -279.446213242298     Delta-E=       -0.082053491236 Rises=F Damp=F
 DIIS: error= 1.90D-02 at cycle   2 NSaved=   2.
 NSaved= 2 IEnMin= 2 EnMin= -279.446213242298     IErMin= 2 ErrMin= 1.90D-02
 ErrMax= 1.90D-02  0.00D+00 EMaxC= 1.00D-01 BMatC= 8.44D-02 BMatP= 4.49D-01
 IDIUse=3 WtCom= 8.10D-01 WtEn= 1.90D-01
 Coeff-Com:  0.216D+00 0.784D+00
 Coeff-En:   0.680D-01 0.932D+00
 Coeff:      0.188D+00 0.812D+00
 Gap=     0.560 Goal=   None    Shift=    0.000
 RMSDP=9.61D-04 MaxDP=3.64D-02 DE=-8.21D-02 OVMax= 9.08D-02

 Cycle   3  Pass 1  IDiag  1:
 E= -279.482977038043     Delta-E=       -0.036763795745 Rises=F Damp=F
 DIIS: error= 1.11D-02 at cycle   3 NSaved=   3.
 NSaved= 3 IEnMin= 3 EnMin= -279.482977038043     IErMin= 3 ErrMin= 1.11D-02
 ErrMax= 1.11D-02  0.00D+00 EMaxC= 1.00D-01 BMatC= 3.10D-02 BMatP= 8.44D-02
 IDIUse=3 WtCom= 8.89D-01 WtEn= 1.11D-01
 Coeff-Com: -0.348D-01 0.367D+00 0.668D+00
 Coeff-En:   0.000D+00 0.222D+00 0.778D+00
 Coeff:     -0.309D-01 0.351D+00 0.680D+00
 Gap=     0.540 Goal=   None    Shift=    0.000
 RMSDP=4.10D-04 MaxDP=1.58D-02 DE=-3.68D-02 OVMax= 3.86D-02

 Cycle   4  Pass 1  IDiag  1:
 E= -279.504143795204     Delta-E=       -0.021166757161 Rises=F Damp=F
 DIIS: error= 1.66D-03 at cycle   4 NSaved=   4.
 NSaved= 4 IEnMin= 4 EnMin= -279.504143795204     IErMin= 4 ErrMin= 1.66D-03
 ErrMax= 1.66D-03  0.00D+00 EMaxC= 1.00D-01 BMatC= 5.89D-04 BMatP= 3.10D-02
 IDIUse=3 WtCom= 9.83D-01 WtEn= 1.66D-02
 Coeff-Com: -0.118D-01 0.462D-01 0.150D+00 0.815D+00
 Coeff-En:   0.000D+00 0.000D+00 0.000D+00 0.100D+01
 Coeff:     -0.116D-01 0.455D-01 0.148D+00 0.818D+00
 Gap=     0.527 Goal=   None    Shift=    0.000
 RMSDP=9.89D-05 MaxDP=2.29D-03 DE=-2.12D-02 OVMax= 1.17D-02

 Cycle   5  Pass 1  IDiag  1:
 E= -279.504951900248     Delta-E=       -0.000808105044 Rises=F Damp=F
 DIIS: error= 1.09D-03 at cycle   5 NSaved=   5.
 NSaved= 5 IEnMin= 5 EnMin= -279.504951900248     IErMin= 5 ErrMin= 1.09D-03
 ErrMax= 1.09D-03  0.00D+00 EMaxC= 1.00D-01 BMatC= 1.03D-04 BMatP= 5.89D-04
 IDIUse=3 WtCom= 9.89D-01 WtEn= 1.09D-02
 Coeff-Com:  0.538D-02-0.665D-01-0.110D+00 0.643D-01 0.111D+01
 Coeff-En:   0.000D+00 0.000D+00 0.000D+00 0.000D+00 0.100D+01
 Coeff:      0.532D-02-0.658D-01-0.109D+00 0.636D-01 0.111D+01
 Gap=     0.531 Goal=   None    Shift=    0.000
 RMSDP=7.96D-05 MaxDP=2.12D-03 DE=-8.08D-04 OVMax= 1.29D-02

 Cycle   6  Pass 1  IDiag  1:
 E= -279.505314210638     Delta-E=       -0.000362310390 Rises=F Damp=F
 DIIS: error= 3.40D-04 at cycle   6 NSaved=   6.
 NSaved= 6 IEnMin= 6 EnMin= -279.505314210638     IErMin= 6 ErrMin= 3.40D-04
 ErrMax= 3.40D-04  0.00D+00 EMaxC= 1.00D-01 BMatC= 2.43D-05 BMatP= 1.03D-04
 IDIUse=3 WtCom= 9.97D-01 WtEn= 3.40D-03
 Coeff-Com:  0.191D-02-0.734D-02-0.181D-01-0.186D+00 0.206D-01 0.119D+01
 Coeff-En:   0.000D+00 0.000D+00 0.000D+00 0.000D+00 0.000D+00 0.100D+01
 Coeff:      0.190D-02-0.731D-02-0.181D-01-0.185D+00 0.205D-01 0.119D+01
 Gap=     0.531 Goal=   None    Shift=    0.000
 RMSDP=4.67D-05 MaxDP=1.08D-03 DE=-3.62D-04 OVMax= 6.13D-03

 Cycle   7  Pass 1  IDiag  1:
 E= -279.505400534159     Delta-E=       -0.000086323521 Rises=F Damp=F
 DIIS: error= 1.28D-04 at cycle   7 NSaved=   7.
 NSaved= 7 IEnMin= 7 EnMin= -279.505400534159     IErMin= 7 ErrMin= 1.28D-04
 ErrMax= 1.28D-04  0.00D+00 EMaxC= 1.00D-01 BMatC= 3.56D-06 BMatP= 2.43D-05
 IDIUse=3 WtCom= 9.99D-01 WtEn= 1.28D-03
 Coeff-Com: -0.111D-02 0.116D-01 0.252D-01 0.181D-01-0.182D+00-0.163D+00
 Coeff-Com:  0.129D+01
 Coeff-En:   0.000D+00 0.000D+00 0.000D+00 0.000D+00 0.000D+00 0.000D+00
 Coeff-En:   0.100D+01
 Coeff:     -0.111D-02 0.116D-01 0.252D-01 0.181D-01-0.182D+00-0.163D+00
 Coeff:      0.129D+01
 Gap=     0.532 Goal=   None    Shift=    0.000
 RMSDP=1.77D-05 MaxDP=5.18D-04 DE=-8.63D-05 OVMax= 2.35D-03

 Cycle   8  Pass 1  IDiag  1:
 E= -279.505412625125     Delta-E=       -0.000012090966 Rises=F Damp=F
 DIIS: error= 4.65D-05 at cycle   8 NSaved=   8.
 NSaved= 8 IEnMin= 8 EnMin= -279.505412625125     IErMin= 8 ErrMin= 4.65D-05
 ErrMax= 4.65D-05  0.00D+00 EMaxC= 1.00D-01 BMatC= 5.83D-07 BMatP= 3.56D-06
 IDIUse=1 WtCom= 1.00D+00 WtEn= 0.00D+00
 Coeff-Com: -0.556D-03 0.409D-02 0.960D-02 0.249D-01-0.570D-01-0.190D+00
 Coeff-Com:  0.350D+00 0.859D+00
 Coeff:     -0.556D-03 0.409D-02 0.960D-02 0.249D-01-0.570D-01-0.190D+00
 Coeff:      0.350D+00 0.859D+00
 Gap=     0.532 Goal=   None    Shift=    0.000
 RMSDP=5.33D-06 MaxDP=1.50D-04 DE=-1.21D-05 OVMax= 6.36D-04

 Cycle   9  Pass 1  IDiag  1:
 E= -279.505413967586     Delta-E=       -0.000001342460 Rises=F Damp=F
 DIIS: error= 2.45D-05 at cycle   9 NSaved=   9.
 NSaved= 9 IEnMin= 9 EnMin= -279.505413967586     IErMin= 9 ErrMin= 2.45D-05
 ErrMax= 2.45D-05  0.00D+00 EMaxC= 1.00D-01 BMatC= 1.19D-07 BMatP= 5.83D-07
 IDIUse=1 WtCom= 1.00D+00 WtEn= 0.00D+00
 Coeff-Com:  0.244D-03-0.261D-02-0.537D-02-0.561D-02 0.473D-01 0.493D-01
 Coeff-Com: -0.344D+00 0.458D-01 0.121D+01
 Coeff:      0.244D-03-0.261D-02-0.537D-02-0.561D-02 0.473D-01 0.493D-01
 Coeff:     -0.344D+00 0.458D-01 0.121D+01
 Gap=     0.532 Goal=   None    Shift=    0.000
 RMSDP=2.47D-06 MaxDP=6.71D-05 DE=-1.34D-06 OVMax= 2.60D-04

 Cycle  10  Pass 1  IDiag  1:
 E= -279.505414232893     Delta-E=       -0.000000265308 Rises=F Damp=F
 DIIS: error= 5.62D-06 at cycle  10 NSaved=  10.
 NSaved=10 IEnMin=10 EnMin= -279.505414232893     IErMin=10 ErrMin= 5.62D-06
 ErrMax= 5.62D-06  0.00D+00 EMaxC= 1.00D-01 BMatC= 8.26D-09 BMatP= 1.19D-07
 IDIUse=1 WtCom= 1.00D+00 WtEn= 0.00D+00
 Coeff-Com: -0.370D-04 0.484D-03 0.116D-02-0.193D-02-0.106D-01 0.562D-02
 Coeff-Com:  0.710D-01-0.582D-01-0.422D+00 0.141D+01
 Coeff:     -0.370D-04 0.484D-03 0.116D-02-0.193D-02-0.106D-01 0.562D-02
 Coeff:      0.710D-01-0.582D-01-0.422D+00 0.141D+01
 Gap=     0.532 Goal=   None    Shift=    0.000
 RMSDP=7.01D-07 MaxDP=2.52D-05 DE=-2.65D-07 OVMax= 7.53D-05

 Cycle  11  Pass 1  IDiag  1:
 E= -279.505414257687     Delta-E=       -0.000000024794 Rises=F Damp=F
 DIIS: error= 2.18D-06 at cycle  11 NSaved=  11.
 NSaved=11 IEnMin=11 EnMin= -279.505414257687     IErMin=11 ErrMin= 2.18D-06
 ErrMax= 2.18D-06  0.00D+00 EMaxC= 1.00D-01 BMatC= 8.52D-10 BMatP= 8.26D-09
 IDIUse=1 WtCom= 1.00D+00 WtEn= 0.00D+00
 Coeff-Com: -0.170D-04 0.175D-03 0.363D-03 0.887D-03-0.239D-02-0.714D-02
 Coeff-Com:  0.203D-01 0.181D-01-0.558D-01-0.306D+00 0.133D+01
 Coeff:     -0.170D-04 0.175D-03 0.363D-03 0.887D-03-0.239D-02-0.714D-02
 Coeff:      0.203D-01 0.181D-01-0.558D-01-0.306D+00 0.133D+01
 Gap=     0.532 Goal=   None    Shift=    0.000
 RMSDP=2.43D-07 MaxDP=9.02D-06 DE=-2.48D-08 OVMax= 2.83D-05

 Cycle  12  Pass 1  IDiag  1:
 E= -279.505414260718     Delta-E=       -0.000000003030 Rises=F Damp=F
 DIIS: error= 7.52D-07 at cycle  12 NSaved=  12.
 NSaved=12 IEnMin=12 EnMin= -279.505414260718     IErMin=12 ErrMin= 7.52D-07
 ErrMax= 7.52D-07  0.00D+00 EMaxC= 1.00D-01 BMatC= 9.25D-11 BMatP= 8.52D-10
 IDIUse=1 WtCom= 1.00D+00 WtEn= 0.00D+00
 Coeff-Com:  0.251D-05-0.454D-04-0.981D-04 0.164D-03 0.114D-02-0.902D-03
 Coeff-Com: -0.733D-02 0.748D-02 0.414D-01-0.123D+00-0.169D+00 0.125D+01
 Coeff:      0.251D-05-0.454D-04-0.981D-04 0.164D-03 0.114D-02-0.902D-03
 Coeff:     -0.733D-02 0.748D-02 0.414D-01-0.123D+00-0.169D+00 0.125D+01
 Gap=     0.532 Goal=   None    Shift=    0.000
 RMSDP=8.69D-08 MaxDP=2.85D-06 DE=-3.03D-09 OVMax= 1.01D-05

 Cycle  13  Pass 1  IDiag  1:
 E= -279.505414261044     Delta-E=       -0.000000000327 Rises=F Damp=F
 DIIS: error= 1.72D-07 at cycle  13 NSaved=  13.
 NSaved=13 IEnMin=13 EnMin= -279.505414261044     IErMin=13 ErrMin= 1.72D-07
 ErrMax= 1.72D-07  0.00D+00 EMaxC= 1.00D-01 BMatC= 8.01D-12 BMatP= 9.25D-11
 IDIUse=1 WtCom= 1.00D+00 WtEn= 0.00D+00
 Coeff-Com:  0.138D-05-0.134D-04-0.195D-04-0.126D-03 0.688D-04 0.951D-03
 Coeff-Com: -0.120D-02-0.258D-02-0.141D-02 0.551D-01-0.132D+00-0.155D+00
 Coeff-Com:  0.124D+01
 Coeff:      0.138D-05-0.134D-04-0.195D-04-0.126D-03 0.688D-04 0.951D-03
 Coeff:     -0.120D-02-0.258D-02-0.141D-02 0.551D-01-0.132D+00-0.155D+00
 Coeff:      0.124D+01
 Gap=     0.532 Goal=   None    Shift=    0.000
 RMSDP=2.38D-08 MaxDP=7.03D-07 DE=-3.27D-10 OVMax= 2.15D-06

 Cycle  14  Pass 1  IDiag  1:
 E= -279.505414261067     Delta-E=       -0.000000000023 Rises=F Damp=F
 DIIS: error= 4.27D-08 at cycle  14 NSaved=  14.
 NSaved=14 IEnMin=14 EnMin= -279.505414261067     IErMin=14 ErrMin= 4.27D-08
 ErrMax= 4.27D-08  0.00D+00 EMaxC= 1.00D-01 BMatC= 5.29D-13 BMatP= 8.01D-12
 IDIUse=1 WtCom= 1.00D+00 WtEn= 0.00D+00
 Coeff-Com: -0.302D-06 0.460D-05 0.917D-05-0.554D-05-0.116D-03 0.700D-04
 Coeff-Com:  0.666D-03-0.396D-03-0.368D-02 0.864D-02 0.169D-01-0.906D-01
 Coeff-Com: -0.266D-01 0.109D+01
 Coeff:     -0.302D-06 0.460D-05 0.917D-05-0.554D-05-0.116D-03 0.700D-04
 Coeff:      0.666D-03-0.396D-03-0.368D-02 0.864D-02 0.169D-01-0.906D-01
 Coeff:     -0.266D-01 0.109D+01
 Gap=     0.532 Goal=   None    Shift=    0.000
 RMSDP=4.62D-09 MaxDP=1.17D-07 DE=-2.25D-11 OVMax= 4.84D-07

 SCF Done:  E(RHF) =  -279.505414261     A.U. after   14 cycles
            NFock= 14  Conv=0.46D-08     -V/T= 2.0023
 KE= 2.788610396341D+02 PE=-9.062342282602D+02 EE= 2.251812344396D+02
 Leave Link  502 at Sun Mar  6 18:46:31 2022, MaxMem= 16106127360 cpu:              86.8 elap:               4.8
 (Enter /sw/contrib/gaussian/g16/B01/g16/l801.exe)
 ExpMin= 2.53D-02 ExpMax= 1.53D+04 ExpMxC= 5.22D+02 IAcc=3 IRadAn=         5 AccDes= 0.00D+00
 HarFok:  IExCor=  205 AccDes= 0.00D+00 IRadAn=         5 IDoV=-2 UseB2=F ITyADJ=14
 ICtDFT= 12500011 ScaDFX=  1.000000  1.000000  1.000000  1.000000
 Largest valence mixing into a core orbital is  2.07D-04
 Largest core mixing into a valence orbital is  3.13D-05
 Range of M.O.s used for correlation:     5   207
 NBasis=   207 NAE=    16 NBE=    16 NFC=     4 NFV=     0
 NROrb=    203 NOA=    12 NOB=    12 NVA=   191 NVB=   191

 **** Warning!!: The largest alpha MO coefficient is  0.16501504D+02

 Leave Link  801 at Sun Mar  6 18:46:31 2022, MaxMem= 16106127360 cpu:               3.3 elap:               0.2
 (Enter /sw/contrib/gaussian/g16/B01/g16/l906.exe)
 Frozen-core derivative calculation, NFC=   4 NFV=   0.
 FulOut=F Deriv=T AODrv=T NAtomX=     5
   MMem=           0  MDisk=          12 MDiskD=          12
  W3Min=      811440 MinDsk=     2425030 NBas6D=         245
 NBas2D=       30762    NTT=       30135    LW2=     7400000
    MDV= 16105571546 MDiskM=      328644 NBas2p=       30759
 Disk-based method using ON**2 memory for 12 occupieds at a time.
 Permanent disk used for amplitudes=    11516536 words.
 Estimated scratch disk usage=   321863743 words.
 IMap=   1   2   3   4   5   6   7   8   9  10  11  12  13  14  15  16
 Actual    scratch disk usage=   310892607 words.
 JobTyp=1 Pass  1:  I=   5 to  16 NPSUse= 28 ParTrn=T ParDer=T DoDerP=T.
 (rs|ai) integrals will be sorted in core.
 Spin components of T(2) and E(2):
     alpha-alpha T2 =       0.3489926041D-01 E2=     -0.1247012441D+00
     alpha-beta  T2 =       0.1849437518D+00 E2=     -0.7002701214D+00
     beta-beta   T2 =       0.3489926041D-01 E2=     -0.1247012441D+00
 The integrals were generated   1 times.
 ANorm=    0.1120152790D+01
 E2 =    -0.9496726096D+00 EUMP2 =    -0.28045508687067D+03
 Leave Link  906 at Sun Mar  6 18:48:08 2022, MaxMem= 16106127360 cpu:            2707.2 elap:              96.8
 (Enter /sw/contrib/gaussian/g16/B01/g16/l1101.exe)
 Using compressed Sx but separate Hx and Fx, NAtomX=     5.
 Will process      6 centers per pass.
 Leave Link 1101 at Sun Mar  6 18:48:08 2022, MaxMem= 16106127360 cpu:               5.2 elap:               0.2
 (Enter /sw/contrib/gaussian/g16/B01/g16/l1102.exe)
 Leave Link 1102 at Sun Mar  6 18:48:08 2022, MaxMem= 16106127360 cpu:               0.5 elap:               0.0
 (Enter /sw/contrib/gaussian/g16/B01/g16/l1110.exe)
 Forming Gx(P) for the SCF density, NAtomX=     5.
 Integral derivatives from FoFJK, PRISM(SPDF).
 Do as many integral derivatives as possible in FoFJK.
 G2DrvN: MDV=   16106126844.
 G2DrvN: will do     6 centers at a time, making    1 passes.
 Calling FoFCou, ICntrl=  3107 FMM=F I1Cent=   0 AccDes= 0.00D+00.
 FoFJK:  IHMeth= 1 ICntrl=    3107 DoSepK=F KAlg= 0 I1Cent=           0 FoldK=F
 IRaf=         0 NMat=       1 IRICut=       1 DoRegI=T DoRafI=F ISym2E= 1 IDoP0=0 IntGTp=1.
 FoFCou: FMM=F IPFlag=           0 FMFlag=      100000 FMFlg1=           0
         NFxFlg=           0 DoJE=F BraDBF=F KetDBF=F FulRan=T
         wScrn=  0.000000 ICntrl=      3107 IOpCl=  0 I1Cent=           0 NGrid=           0
         NMat0=    1 NMatS0=      1 NMatT0=    0 NMatD0=    1 NMtDS0=    0 NMtDT0=    0
 Petite list used in FoFCou.
 End of G2Drv F.D. properties file   721 does not exist.
 End of G2Drv F.D. properties file   722 does not exist.
 End of G2Drv F.D. properties file   788 does not exist.
 Leave Link 1110 at Sun Mar  6 18:48:12 2022, MaxMem= 16106127360 cpu:              87.2 elap:               3.1
 (Enter /sw/contrib/gaussian/g16/B01/g16/l1002.exe)
 Minotr:  Closed shell wavefunction.
          IDoAtm=11111
          Frozen-core window.
          Direct CPHF calculation.
          Differentiating once with respect to electric field.
                with respect to dipole field.
          Differentiating once with respect to nuclear coordinates.
          Requested convergence is 1.0D-08 RMS, and 1.0D-07 maximum.
          Secondary convergence is 1.0D-12 RMS, and 1.0D-12 maximum.
          NewPWx=T KeepS1=T KeepF1=T KeepIn=T MapXYZ=F SortEE=F KeepMc=T.
 Keep R1 ints in memory in symmetry-blocked form, NReq=348888983.
 FoFCou: FMM=F IPFlag=           0 FMFlag=           0 FMFlg1=           0
         NFxFlg=           0 DoJE=F BraDBF=F KetDBF=F FulRan=T
         wScrn=  0.000000 ICntrl=       600 IOpCl=  0 I1Cent=           0 NGrid=           0
         NMat0=    1 NMatS0=  21528 NMatT0=    0 NMatD0=    1 NMtDS0=    0 NMtDT0=    0
 Petite list used in FoFCou.
          MDV=   16106127360 using IRadAn=       1.
          Solving linear equations simultaneously, MaxMat=       0.
          There are    18 degrees of freedom in the 1st order CPHF.  IDoFFX=6 NUNeed=    18.
     15 vectors produced by pass  0 Test12= 1.70D-14 5.56D-09 XBig12= 7.95D+00 1.22D+00.
 AX will form    15 AO Fock derivatives at one time.
     15 vectors produced by pass  1 Test12= 1.70D-14 5.56D-09 XBig12= 1.36D+00 2.27D-01.
     15 vectors produced by pass  2 Test12= 1.70D-14 5.56D-09 XBig12= 6.69D-02 5.65D-02.
     15 vectors produced by pass  3 Test12= 1.70D-14 5.56D-09 XBig12= 1.93D-03 1.06D-02.
     15 vectors produced by pass  4 Test12= 1.70D-14 5.56D-09 XBig12= 4.33D-05 1.28D-03.
     15 vectors produced by pass  5 Test12= 1.70D-14 5.56D-09 XBig12= 5.99D-07 1.18D-04.
     15 vectors produced by pass  6 Test12= 1.70D-14 5.56D-09 XBig12= 4.68D-09 1.20D-05.
     14 vectors produced by pass  7 Test12= 1.70D-14 5.56D-09 XBig12= 3.61D-11 7.67D-07.
      3 vectors produced by pass  8 Test12= 1.70D-14 5.56D-09 XBig12= 2.56D-13 6.29D-08.
      1 vectors produced by pass  9 Test12= 1.70D-14 5.56D-09 XBig12= 1.74D-15 7.09D-09.
 InvSVY:  IOpt=1 It=  1 EMax= 7.77D-16
 Solved reduced A of dimension   123 with    15 vectors.
 FullF1:  Do perturbations      1 to      18.
 Saving first derivative matrices.
 End of Minotr F.D. properties file   721 does not exist.
 End of Minotr F.D. properties file   722 does not exist.
 End of Minotr F.D. properties file   788 does not exist.
 Leave Link 1002 at Sun Mar  6 18:48:15 2022, MaxMem= 16106127360 cpu:              80.8 elap:               3.1
 (Enter /sw/contrib/gaussian/g16/B01/g16/l811.exe)
 MDV= 16106127360.
 Form MO integral derivatives with frozen-active canonical formalism.
 MOERI=1 MOERIx=1 NAtoms=     5 NAtomX=     5.
 Discarding MO integrals.
 MO basis two electron integral derivatives will not be stored on disk.
 IAlg= 3 DoFC=T DoPWx=T Debug=F.
 Frozen-core window:  NFC=   4 NFV=   0.
 Reordered first order wavefunction length =     18678272
 In DefCFB: NBatch=  1 ICI= 16 ICA=191 LFMax= 96
            Large arrays: LIAPS=   619940160 LIARS=   288257200 words.
 In StABat: MaxSiz= 55 MinSiz= 25 NAtomB=  5
 DoIAMN: NPSUse= 28.
 Leave Link  811 at Sun Mar  6 18:49:39 2022, MaxMem= 16106127360 cpu:            2351.1 elap:              84.2
 (Enter /sw/contrib/gaussian/g16/B01/g16/l804.exe)
 Frozen-core window:  NFC=   4 NFV=   0.
 Closed-shell transformation, MDV= 16106127360 ITran=4 ISComp=1.
 Semi-Direct transformation.
 ModeAB=           2 MOrb=            16 LenV=   16104919925
 LASXX=     67341636 LTotXX=    67341636 LenRXX=    67341636
 LTotAB=    68301760 MaxLAS=    99807120 LenRXY=    99807120
 NonZer=   134683272 LenScr=   202817536 LnRSAI=           0
 LnScr1=           0 LExtra=           0 Total=    369966292
 MaxDsk=          -1 SrtSym=           F ITran=            4
 DoSDTr:  NPSUse= 28
 JobTyp=0 Pass  1:  I=   1 to  16.
 (rs|ai) integrals will be sorted in core.
 Complete sort for first half transformation.
 First half transformation complete.
 Begin second half transformation for I=  10.
 Begin second half transformation for I=  10.
 Complete sort for second half transformation.
 Second half transformation complete.
 Spin components of T(2) and E(2):
     alpha-alpha T2 =       0.3489926041D-01 E2=     -0.1247012441D+00
     alpha-beta  T2 =       0.1849437518D+00 E2=     -0.7002701214D+00
     beta-beta   T2 =       0.3489926041D-01 E2=     -0.1247012441D+00
 ANorm=    0.1584135267D+01
 E2 =    -0.9496726096D+00 EUMP2 =    -0.28045508687067D+03
 Leave Link  804 at Sun Mar  6 18:49:55 2022, MaxMem= 16106127360 cpu:             433.7 elap:              15.6
 (Enter /sw/contrib/gaussian/g16/B01/g16/l1002.exe)
 Minotr:  Closed shell wavefunction.
          Computing MP2/KS-MP2 derivatives.
          Using Z-Vector for PSCF gradient.
          Skipping F1 and S1 gradient terms here.
          IDoAtm=11111
          Frozen-core window.
          Using MO integrals in the linear equations.
          Forming densities via direct SCF.
          Differentiating once with respect to electric field.
                with respect to dipole field.
          Differentiating once with respect to nuclear coordinates.
          Using symmetry in CPHF.
          Requested convergence is 1.0D-10 RMS, and 1.0D-09 maximum.
          NewPWx=F KeepS1=T KeepF1=T KeepIn=T MapXYZ=F SortEE=F KeepMc=T.
          MDV=   16106127360 using IRadAn=       5.
          Solving linear equations separately, MaxMat=       0.
          There are     1 degrees of freedom in the 1st order CPHF.  IDoFFX=0 NUNeed=     1.
 FoFJK:  IHMeth= 1 ICntrl=       0 DoSepK=F KAlg= 0 I1Cent=           0 FoldK=F
 IRaf=         0 NMat=       1 IRICut=       1 DoRegI=T DoRafI=F ISym2E= 0 IDoP0=0 IntGTp=1.
 FoFCou: FMM=F IPFlag=           0 FMFlag=      100000 FMFlg1=           0
         NFxFlg=           0 DoJE=F BraDBF=F KetDBF=F FulRan=T
         wScrn=  0.000000 ICntrl=         0 IOpCl=  0 I1Cent=           0 NGrid=           0
         NMat0=    1 NMatS0=      1 NMatT0=    0 NMatD0=    1 NMtDS0=    0 NMtDT0=    0
 Symmetry not used in FoFCou.
 LinEq1:  Iter=  0 NonCon=     1 RMS=6.62D-03 Max=1.71D-01 NDo=     1
 LinEq1:  Iter=  1 NonCon=     1 RMS=2.01D-03 Max=3.05D-02 NDo=     1
 LinEq1:  Iter=  2 NonCon=     1 RMS=8.92D-04 Max=1.45D-02 NDo=     1
 LinEq1:  Iter=  3 NonCon=     1 RMS=3.79D-04 Max=8.09D-03 NDo=     1
 LinEq1:  Iter=  4 NonCon=     1 RMS=1.37D-04 Max=1.66D-03 NDo=     1
 LinEq1:  Iter=  5 NonCon=     1 RMS=7.65D-05 Max=1.40D-03 NDo=     1
 LinEq1:  Iter=  6 NonCon=     1 RMS=2.45D-05 Max=3.03D-04 NDo=     1
 LinEq1:  Iter=  7 NonCon=     1 RMS=8.20D-06 Max=1.11D-04 NDo=     1
 LinEq1:  Iter=  8 NonCon=     1 RMS=4.03D-06 Max=6.21D-05 NDo=     1
 LinEq1:  Iter=  9 NonCon=     1 RMS=1.06D-06 Max=1.20D-05 NDo=     1
 LinEq1:  Iter= 10 NonCon=     1 RMS=2.35D-07 Max=2.90D-06 NDo=     1
 LinEq1:  Iter= 11 NonCon=     1 RMS=5.05D-08 Max=8.11D-07 NDo=     1
 LinEq1:  Iter= 12 NonCon=     1 RMS=1.19D-08 Max=1.73D-07 NDo=     1
 LinEq1:  Iter= 13 NonCon=     1 RMS=2.11D-09 Max=2.29D-08 NDo=     1
 LinEq1:  Iter= 14 NonCon=     1 RMS=4.38D-10 Max=5.83D-09 NDo=     1
 LinEq1:  Iter= 15 NonCon=     0 RMS=8.99D-11 Max=9.01D-10 NDo=     1
 Linear equations converged to 1.000D-10 1.000D-09 after    15 iterations.
 End of Minotr F.D. properties file   721 does not exist.
 End of Minotr F.D. properties file   722 does not exist.
 End of Minotr F.D. properties file   788 does not exist.
 Leave Link 1002 at Sun Mar  6 18:49:57 2022, MaxMem= 16106127360 cpu:              65.8 elap:               2.4
 (Enter /sw/contrib/gaussian/g16/B01/g16/l1102.exe)
 Use density number 2.
 Symmetrizing basis deriv contribution to polar:
 IMax=3 JMax=2 DiffMx= 0.00D+00
 Leave Link 1102 at Sun Mar  6 18:49:57 2022, MaxMem= 16106127360 cpu:               0.9 elap:               0.1
 (Enter /sw/contrib/gaussian/g16/B01/g16/l1110.exe)
 Forming Gx(P) for generalized density number  2 NAtomX=     5.
 Integral derivatives from FoFJK, PRISM(SPDF).
 Do as many integral derivatives as possible in FoFJK.
 G2DrvN: MDV=   16106126844.
 G2DrvN: will do     6 centers at a time, making    1 passes.
 Calling FoFCou, ICntrl=  3107 FMM=F I1Cent=   0 AccDes= 0.00D+00.
 FoFJK:  IHMeth= 1 ICntrl=    3107 DoSepK=F KAlg= 0 I1Cent=           0 FoldK=F
 IRaf=         0 NMat=       1 IRICut=       1 DoRegI=T DoRafI=F ISym2E= 1 IDoP0=0 IntGTp=1.
 FoFCou: FMM=F IPFlag=           0 FMFlag=      100000 FMFlg1=           0
         NFxFlg=           0 DoJE=F BraDBF=F KetDBF=F FulRan=T
         wScrn=  0.000000 ICntrl=      3107 IOpCl=  0 I1Cent=           0 NGrid=           0
         NMat0=    1 NMatS0=      1 NMatT0=    0 NMatD0=    1 NMtDS0=    0 NMtDT0=    0
 Petite list used in FoFCou.
 End of G2Drv F.D. properties file   721 does not exist.
 End of G2Drv F.D. properties file   722 does not exist.
 End of G2Drv F.D. properties file   788 does not exist.
 Leave Link 1110 at Sun Mar  6 18:50:00 2022, MaxMem= 16106127360 cpu:              87.4 elap:               3.1
 (Enter /sw/contrib/gaussian/g16/B01/g16/l1112.exe)
 MP22nd: MDV=   16106127360
 This link is doing NAtomX=     5 total of    18 degrees of freedom.
 Using ON3 I/O method in MakUI.
 Frozen-core window:  NFC=   4 NFV=   0.
 Using Ix for Sx.
 Use MO integrals over full window.
 Using OV2 memory method for fx*t*t/D, MaxI=    16 DoOO2=F NP=  28.
 R2 and R3 integrals will be kept in memory, NReq=   915591705.
 FoFCou: FMM=F IPFlag=           0 FMFlag=           0 FMFlg1=           0
         NFxFlg=           0 DoJE=F BraDBF=F KetDBF=F FulRan=T
         wScrn=  0.000000 ICntrl=       600 IOpCl=  0 I1Cent=           0 NGrid=           0
         NMat0=    1 NMatS0=      1 NMatT0=    0 NMatD0=    1 NMtDS0=    0 NMtDT0=    0
 Symmetry not used in FoFCou.
 DD1Dir will call FoFMem   1 times, MxPair=       272
 NAB=   136 NAA=     0 NBB=     0.
 Symmetry is being used.
 FoFJK:  IHMeth= 1 ICntrl=       0 DoSepK=F KAlg= 0 I1Cent=           0 FoldK=F
 IRaf=         0 NMat=      18 IRICut=      45 DoRegI=T DoRafI=T ISym2E= 2 IDoP0=3 IntGTp=3.
 Discarding MO integrals.
 Leave Link 1112 at Sun Mar  6 18:50:31 2022, MaxMem= 16106127360 cpu:             843.7 elap:              30.4
 (Enter /sw/contrib/gaussian/g16/B01/g16/l601.exe)
 Copying SCF densities to generalized density rwf, IOpCl= 0 IROHF=0.

 **********************************************************************

            Population analysis using the MP2 Density.

 **********************************************************************

 Orbital symmetries:
       Occupied  (A') (A') (A') (A') (A') (A') (A') (A') (A') (A')
                 (A") (A') (A') (A") (A') (A")
       Virtual   (A') (A") (A') (A') (A") (A') (A') (A') (A") (A')
                 (A") (A') (A') (A') (A") (A') (A') (A") (A') (A')
                 (A') (A') (A') (A') (A") (A') (A') (A") (A') (A')
                 (A') (A") (A") (A') (A') (A') (A") (A') (A") (A')
                 (A") (A") (A') (A') (A") (A') (A') (A") (A') (A')
                 (A') (A") (A') (A') (A") (A') (A") (A') (A") (A')
                 (A') (A') (A") (A') (A') (A') (A") (A") (A') (A')
                 (A") (A') (A") (A") (A') (A') (A") (A') (A') (A')
                 (A") (A') (A') (A") (A') (A") (A") (A') (A') (A')
                 (A') (A') (A") (A") (A') (A') (A") (A") (A') (A")
                 (A') (A') (A") (A') (A") (A') (A') (A') (A") (A")
                 (A') (A') (A') (A') (A") (A') (A') (A') (A") (A')
                 (A") (A") (A') (A') (A") (A") (A') (A") (A') (A')
                 (A') (A') (A") (A') (A') (A") (A") (A') (A') (A")
                 (A') (A") (A') (A') (A') (A") (A') (A') (A') (A")
                 (A') (A') (A') (A") (A') (A") (A") (A') (A') (A")
                 (A') (A") (A') (A") (A") (A') (A") (A') (A") (A')
                 (A") (A") (A") (A') (A') (A") (A') (A') (A") (A')
                 (A') (A') (A') (A') (A') (A') (A') (A') (A') (A')
                 (A')
 The electronic state is 1-A'.
 Alpha  occ. eigenvalues --  -20.71959 -20.68743 -20.66873 -15.82602  -1.64406
 Alpha  occ. eigenvalues --   -1.50397  -1.29120  -0.95950  -0.83407  -0.75876
 Alpha  occ. eigenvalues --   -0.73974  -0.63412  -0.61833  -0.61807  -0.50486
 Alpha  occ. eigenvalues --   -0.49691
 Alpha virt. eigenvalues --    0.03496   0.06018   0.09520   0.10034   0.11983
 Alpha virt. eigenvalues --    0.12264   0.14907   0.15192   0.17776   0.18040
 Alpha virt. eigenvalues --    0.18982   0.21083   0.21656   0.24301   0.24639
 Alpha virt. eigenvalues --    0.26904   0.31087   0.31639   0.33828   0.34392
 Alpha virt. eigenvalues --    0.34703   0.39261   0.44682   0.48750   0.50496
 Alpha virt. eigenvalues --    0.51843   0.54417   0.56122   0.59853   0.61926
 Alpha virt. eigenvalues --    0.63856   0.68961   0.71780   0.72381   0.74301
 Alpha virt. eigenvalues --    0.76407   0.76745   0.79557   0.80635   0.83860
 Alpha virt. eigenvalues --    0.84331   0.85194   0.88559   0.90851   0.93209
 Alpha virt. eigenvalues --    0.94762   0.95367   1.01810   1.03153   1.06354
 Alpha virt. eigenvalues --    1.06516   1.09438   1.14383   1.15561   1.16971
 Alpha virt. eigenvalues --    1.22330   1.22745   1.24637   1.35188   1.35813
 Alpha virt. eigenvalues --    1.37177   1.46896   1.48007   1.50503   1.53969
 Alpha virt. eigenvalues --    1.59466   1.59736   1.60585   1.62916   1.69626
 Alpha virt. eigenvalues --    1.73962   1.80024   1.82959   1.88839   1.89487
 Alpha virt. eigenvalues --    1.93079   1.97960   1.98307   2.05144   2.12316
 Alpha virt. eigenvalues --    2.12811   2.16288   2.18770   2.24392   2.26096
 Alpha virt. eigenvalues --    2.29401   2.35269   2.36847   2.38406   2.40184
 Alpha virt. eigenvalues --    2.43451   2.47158   2.47794   2.52984   2.53647
 Alpha virt. eigenvalues --    2.55039   2.55817   2.61565   2.63243   2.67292
 Alpha virt. eigenvalues --    2.67477   2.75574   2.80954   2.82061   2.83878
 Alpha virt. eigenvalues --    2.91887   2.98559   3.04875   3.05121   3.11519
 Alpha virt. eigenvalues --    3.11799   3.17173   3.21449   3.30997   3.32992
 Alpha virt. eigenvalues --    3.35935   3.47555   3.67823   3.86857   3.91633
 Alpha virt. eigenvalues --    4.17378   4.21905   4.22402   4.26784   4.36895
 Alpha virt. eigenvalues --    4.49932   4.52350   4.55491   4.59284   4.69503
 Alpha virt. eigenvalues --    4.79453   4.89673   4.91388   4.92804   4.99542
 Alpha virt. eigenvalues --    5.00470   5.10474   5.12190   5.16313   5.22916
 Alpha virt. eigenvalues --    5.24518   5.31295   5.34231   5.34818   5.54617
 Alpha virt. eigenvalues --    5.64493   5.70583   5.88876   5.99517   6.26453
 Alpha virt. eigenvalues --    6.30076   6.36268   6.37536   6.59630   6.65824
 Alpha virt. eigenvalues --    6.66116   6.68914   6.72674   6.79628   6.80400
 Alpha virt. eigenvalues --    6.85047   6.96824   7.00891   7.06399   7.06903
 Alpha virt. eigenvalues --    7.13575   7.17466   7.17598   7.19011   7.24241
 Alpha virt. eigenvalues --    7.24379   7.27242   7.34934   7.39331   7.42032
 Alpha virt. eigenvalues --    7.44212   7.45920   7.55864   7.66307   7.66699
 Alpha virt. eigenvalues --    7.78430   7.87684   7.95227   8.06636   8.29577
 Alpha virt. eigenvalues --    8.48725   8.64711  13.61398  14.65730  15.01193
 Alpha virt. eigenvalues --   15.77046
          Condensed to atoms (all electrons):
               1          2          3          4          5
     1  H    0.565587   0.129174   0.023228  -0.000403  -0.003262
     2  O    0.129174   8.393022  -0.228065  -0.001204  -0.009740
     3  O    0.023228  -0.228065   8.369688  -0.169135  -0.033675
     4  N   -0.000403  -0.001204  -0.169135   7.136147  -0.120313
     5  O   -0.003262  -0.009740  -0.033675  -0.120313   8.362345
 Mulliken charges:
               1
     1  H    0.285675
     2  O   -0.283186
     3  O    0.037959
     4  N    0.154908
     5  O   -0.195356
 Sum of Mulliken charges =  -0.00000
 Mulliken charges with hydrogens summed into heavy atoms:
               1
     2  O    0.002489
     3  O    0.037959
     4  N    0.154908
     5  O   -0.195356
 APT charges:
               1
     1  H    0.273809
     2  O   -0.302663
     3  O   -0.309123
     4  N    0.641262
     5  O   -0.303284
 Sum of APT charges =  -0.00000
 APT charges with hydrogens summed into heavy atoms:
               1
     2  O   -0.028854
     3  O   -0.309123
     4  N    0.641262
     5  O   -0.303284
 Electronic spatial extent (au):  <R**2>=            207.2557
 Charge=             -0.0000 electrons
 Dipole moment (field-independent basis, Debye):
    X=              0.0471    Y=             -1.1071    Z=              0.0000  Tot=              1.1081
 Quadrupole moment (field-independent basis, Debye-Ang):
   XX=            -23.3995   YY=            -22.9211   ZZ=            -21.9512
   XY=             -1.9872   XZ=              0.0000   YZ=              0.0000
 Traceless Quadrupole moment (field-independent basis, Debye-Ang):
   XX=             -0.6422   YY=             -0.1638   ZZ=              0.8061
   XY=             -1.9872   XZ=              0.0000   YZ=              0.0000
 Octapole moment (field-independent basis, Debye-Ang**2):
  XXX=              2.5089  YYY=              0.2551  ZZZ=              0.0000  XYY=              2.3784
  XXY=             -2.8227  XXZ=              0.0000  XZZ=             -0.6078  YZZ=             -0.7016
  YYZ=              0.0000  XYZ=              0.0000
 Hexadecapole moment (field-independent basis, Debye-Ang**3):
 XXXX=           -127.1433 YYYY=            -94.8536 ZZZZ=            -18.0750 XXXY=            -21.5526
 XXXZ=              0.0000 YYYX=            -19.8299 YYYZ=              0.0000 ZZZX=              0.0000
 ZZZY=              0.0000 XXYY=            -35.6250 XXZZ=            -24.3758 YYZZ=            -18.6024
 XXYZ=              0.0000 YYXZ=              0.0000 ZZXY=             -5.9119
 N-N= 1.226865399254D+02 E-N=-9.069211258600D+02  KE= 2.801800092392D+02
 Symmetry A'   KE= 2.663319215787D+02
 Symmetry A"   KE= 1.384808766046D+01
  Exact polarizability:  31.011   4.141  29.956   0.000   0.000  17.653
 Approx polarizability:  24.637   0.544  27.784  -0.000  -0.000  15.536
 No NMR shielding tensors so no spin-rotation constants.
 Leave Link  601 at Sun Mar  6 18:50:31 2022, MaxMem= 16106127360 cpu:               4.5 elap:               0.2
 (Enter /sw/contrib/gaussian/g16/B01/g16/l701.exe)
 ... and contract with generalized density number  2.
 Compute integral second derivatives.
 Leave Link  701 at Sun Mar  6 18:50:31 2022, MaxMem= 16106127360 cpu:              10.0 elap:               0.4
 (Enter /sw/contrib/gaussian/g16/B01/g16/l702.exe)
 L702 exits ... SP integral derivatives will be done elsewhere.
 Leave Link  702 at Sun Mar  6 18:50:31 2022, MaxMem= 16106127360 cpu:               1.2 elap:               0.1
 (Enter /sw/contrib/gaussian/g16/B01/g16/l703.exe)
 Integral derivatives from FoFJK, PRISM(SPDF).
 Compute integral second derivatives, UseDBF=F ICtDFT=           0.
 Calling FoFJK, ICntrl=  10100127 FMM=F ISym2X=1 I1Cent= 0 IOpClX= 0 NMat=1 NMatS=1 NMatT=0.
 FoFJK:  IHMeth= 1 ICntrl=10100127 DoSepK=F KAlg= 0 I1Cent=           0 FoldK=F
 IRaf=         0 NMat=       1 IRICut=       1 DoRegI=T DoRafI=F ISym2E= 1 IDoP0=0 IntGTp=1.
 FoFCou: FMM=F IPFlag=           0 FMFlag=      100000 FMFlg1=         800
         NFxFlg=           0 DoJE=F BraDBF=F KetDBF=F FulRan=T
         wScrn=  0.000000 ICntrl=  10100127 IOpCl=  0 I1Cent=           0 NGrid=           0
         NMat0=    1 NMatS0=      1 NMatT0=    0 NMatD0=    1 NMtDS0=    0 NMtDT0=    0
 Petite list used in FoFCou.
 Leave Link  703 at Sun Mar  6 18:50:47 2022, MaxMem= 16106127360 cpu:             445.6 elap:              16.0
 (Enter /sw/contrib/gaussian/g16/B01/g16/l716.exe)
 Dipole        = 1.85328396D-02-4.35575712D-01 0.00000000D+00
 Polarizability= 3.10112280D+01 4.14073917D+00 2.99556334D+01
                 0.00000000D+00 0.00000000D+00 1.76531785D+01
 Full mass-weighted force constant matrix:
 Low frequencies ---   -0.0015   -0.0012    0.0009   10.6420   41.2199   45.8505
 Low frequencies ---  400.4859  452.0933  603.9517
 Diagonal vibrational polarizability:
        7.0632534       9.9568790       7.3758884
 Harmonic frequencies (cm**-1), IR intensities (KM/Mole), Raman scattering
 activities (A**4/AMU), depolarization ratios for plane and unpolarized
 incident light, reduced masses (AMU), force constants (mDyne/A),
 and normal coordinates:
                      1                      2                      3
                     A'                     A"                     A"
 Frequencies --    400.4278               451.3737               602.5970
 Red. masses --      7.1771                 5.0220                 1.2720
 Frc consts  --      0.6780                 0.6028                 0.2721
 IR Inten    --      7.6548                16.0772                70.8713
  Atom  AN      X      Y      Z        X      Y      Z        X      Y      Z
     1   1    -0.72  -0.26   0.00     0.00   0.00  -0.85     0.00   0.00   0.99
     2   8    -0.33  -0.31   0.00    -0.00   0.00   0.21    -0.00   0.00  -0.02
     3   8    -0.07   0.08  -0.00    -0.00  -0.00  -0.30     0.00  -0.00  -0.05
     4   7     0.06   0.10   0.00     0.00   0.00   0.35     0.00   0.00   0.10
     5   8     0.39   0.17  -0.00    -0.00   0.00  -0.16    -0.00  -0.00  -0.08
                      4                      5                      6
                     A'                     A'                     A'
 Frequencies --    712.4758               835.9208               975.0604
 Red. masses --     13.6294                12.2037                10.5842
 Frc consts  --      4.0763                 5.0243                 5.9289
 IR Inten    --    215.5430                30.5238                10.8776
  Atom  AN      X      Y      Z        X      Y      Z        X      Y      Z
     1   1    -0.33  -0.00   0.00     0.45  -0.16   0.00    -0.58  -0.03   0.00
     2   8    -0.02  -0.08   0.00     0.52  -0.21   0.00     0.20  -0.18   0.00
     3   8     0.38   0.58  -0.00    -0.38  -0.02  -0.00    -0.37   0.44  -0.00
     4   7    -0.42  -0.46   0.00    -0.43  -0.06   0.00     0.39   0.04   0.00
     5   8     0.02  -0.10  -0.00     0.21   0.28  -0.00    -0.13  -0.29  -0.00
                      7                      8                      9
                     A'                     A'                     A'
 Frequencies --   1454.0837              1574.7989              3309.6516
 Red. masses --      1.3618                 5.0556                 1.0632
 Frc consts  --      1.6965                 7.3871                 6.8615
 IR Inten    --     82.5888               153.3939                44.5234
  Atom  AN      X      Y      Z        X      Y      Z        X      Y      Z
     1   1     0.97  -0.19  -0.00     0.82  -0.17  -0.00     0.14   0.99   0.00
     2   8    -0.07  -0.05  -0.00    -0.03  -0.03  -0.00    -0.01  -0.06  -0.00
     3   8    -0.03   0.05   0.00     0.03   0.06   0.00     0.00  -0.00   0.00
     4   7     0.07  -0.07  -0.00    -0.21   0.35  -0.00    -0.00   0.00   0.00
     5   8    -0.03   0.06   0.00     0.13  -0.32   0.00     0.00  -0.00  -0.00

 -------------------
 - Thermochemistry -
 -------------------
 Temperature   298.150 Kelvin.  Pressure   1.00000 Atm.
 Atom     1 has atomic number  1 and mass   1.00783
 Atom     2 has atomic number  8 and mass  15.99491
 Atom     3 has atomic number  8 and mass  15.99491
 Atom     4 has atomic number  7 and mass  14.00307
 Atom     5 has atomic number  8 and mass  15.99491
 Molecular mass:    62.99564 amu.
 Principal axes and moments of inertia in atomic units:
                           1         2         3
     Eigenvalues --    84.60641 222.56753 307.17394
           X            0.79613  -0.60512   0.00000
           Y            0.60512   0.79613   0.00000
           Z            0.00000   0.00000   1.00000
 This molecule is an asymmetric top.
 Rotational symmetry number  1.
 Rotational temperatures (Kelvin)      1.02373     0.38916     0.28197
 Rotational constants (GHZ):          21.33102     8.10874     5.87531
 Zero-point vibrational energy      61705.7 (Joules/Mol)
                                   14.74802 (Kcal/Mol)
 Warning -- explicit consideration of   3 degrees of freedom as
           vibrations may cause significant error
 Vibrational temperatures:    576.13   649.43   867.00  1025.09  1202.70
          (Kelvin)           1402.89  2092.10  2265.78  4761.85
 
 Zero-point correction=                           0.023502 (Hartree/Particle)
 Thermal correction to Energy=                    0.027292
 Thermal correction to Enthalpy=                  0.028236
 Thermal correction to Gibbs Free Energy=        -0.002368
 Sum of electronic and zero-point Energies=           -280.431584
 Sum of electronic and thermal Energies=              -280.427795
 Sum of electronic and thermal Enthalpies=            -280.426851
 Sum of electronic and thermal Free Energies=         -280.457454
 
                     E (Thermal)             CV                S
                      KCal/Mol        Cal/Mol-Kelvin    Cal/Mol-Kelvin
 Total                   17.126             11.765             64.410
 Electronic               0.000              0.000              0.000
 Translational            0.889              2.981             38.341
 Rotational               0.889              2.981             23.274
 Vibrational             15.348              5.803              2.796
 Vibration     1          0.766              1.469              0.961
 Vibration     2          0.810              1.358              0.792
 Vibration     3          0.961              1.026              0.445
                       Q            Log10(Q)             Ln(Q)
 Total Bot       0.122750D+02          1.089021          2.507564
 Total V=0       0.793223D+12         11.899395         27.399370
 Vib (Bot)       0.229420D-10        -10.639369        -24.498051
 Vib (Bot)    1  0.444975D+00         -0.351665         -0.809737
 Vib (Bot)    2  0.379499D+00         -0.420790         -0.968904
 Vib (Bot)    3  0.247131D+00         -0.607073         -1.397836
 Vib (V=0)       0.148254D+01          0.171005          0.393754
 Vib (V=0)    1  0.116933D+01          0.067937          0.156431
 Vib (V=0)    2  0.112771D+01          0.052197          0.120189
 Vib (V=0)    3  0.105774D+01          0.024379          0.056134
 Electronic      0.100000D+01          0.000000          0.000000
 Translational   0.196526D+08          7.293420         16.793719
 Rotational      0.272252D+05          4.434970         10.211897
 
                                                                title
                                                             IR Spectrum
 
     3                                                                  1    1                                                       
     3                                                                  5    4                 9    8    7   6     4 4               
     1                                                                  7    5                 7    3    1   0     5 0               
     0                                                                  5    4                 5    6    2   3     1 0               
 
     X                                                                  X    X                 X    X    X   X     X X               
     X                                                                  X    X                      X    X   X                       
     X                                                                  X    X                      X    X   X                       
     X                                                                  X    X                           X   X                       
                                                                        X    X                           X   X                       
                                                                        X    X                           X   X                       
                                                                        X    X                           X   X                       
                                                                        X    X                           X                           
                                                                        X                                X                           
                                                                        X                                X                           
                                                                        X                                X                           
                                                                        X                                X                           
                                                                        X                                X                           
                                                                        X                                X                           
                                                                                                         X                           
                                                                                                         X                           
                                                                                                         X                           
                                                                                                         X                           
                                                                                                         X                           
                                                                                                         X                           
 
 ***** Axes restored to original set *****
 -------------------------------------------------------------------
 Center     Atomic                   Forces (Hartrees/Bohr)
 Number     Number              X              Y              Z
 -------------------------------------------------------------------
      1        1           0.000689549   -0.000000000    0.011177189
      2        8          -0.000286545   -0.000000000   -0.010648807
      3        8          -0.000289050   -0.000000000   -0.000906677
      4        7           0.000374161   -0.000000000    0.000823290
      5        8          -0.000488114   -0.000000000   -0.000444995
 -------------------------------------------------------------------
 Cartesian Forces:  Max     0.011177189 RMS     0.004008690
 -----------------------------------------------------------------------------------------------
                       Internal Coordinate Forces (Hartree/Bohr or radian)
  Cent   Atom   N1       Length/X         N2         Alpha/Y        N3         Beta/Z          J
 -----------------------------------------------------------------------------------------------
      1  H 
      2  O        1  -0.011177(     1)
      3  O        2  -0.000494(     2)      1  -0.001303(     5)
      4  N        3  -0.000378(     3)      2  -0.000103(     6)      1   0.000000(     8)     0
      5  O        4   0.000636(     4)      3  -0.000405(     7)      2   0.000000(     9)     0
 -----------------------------------------------------------------------------------------------
 Internal  Forces:  Max     0.011177189 RMS     0.003765221
 Force constants in Cartesian coordinates: 
                1             2             3             4             5 
      1  0.754812D-01
      2  0.000000D+00  0.122186D-01
      3  0.249363D-01  0.000000D+00  0.393019D+00
      4 -0.566373D-01  0.000000D+00 -0.379755D-02  0.285119D+00
      5  0.000000D+00 -0.831943D-02  0.000000D+00  0.000000D+00  0.182346D-01
      6  0.304677D-01  0.000000D+00 -0.376561D+00 -0.132707D-01  0.000000D+00
      7 -0.242029D-01  0.000000D+00 -0.166311D-01 -0.169891D+00  0.000000D+00
      8  0.000000D+00 -0.426580D-02  0.000000D+00  0.000000D+00 -0.194277D-01
      9 -0.421515D-01  0.000000D+00 -0.200568D-01  0.984175D-02  0.000000D+00
     10 -0.597392D-02  0.000000D+00  0.607488D-02 -0.843422D-01  0.000000D+00
     11  0.000000D+00  0.800414D-02  0.000000D+00  0.000000D+00  0.202083D-01
     12 -0.200472D-01  0.000000D+00  0.120994D-01  0.111575D-01  0.000000D+00
     13  0.113329D-01  0.000000D+00 -0.105825D-01  0.257508D-01  0.000000D+00
     14  0.000000D+00 -0.763746D-02  0.000000D+00  0.000000D+00 -0.106957D-01
     15  0.679468D-02  0.000000D+00 -0.850087D-02 -0.393103D-02  0.000000D+00
                6             7             8             9            10 
      6  0.478805D+00
      7 -0.898416D-01  0.302049D+00
      8  0.000000D+00  0.000000D+00  0.417979D-01
      9 -0.960590D-01  0.808617D-01  0.000000D+00  0.315944D+00
     10  0.403183D-01 -0.143421D+00  0.000000D+00 -0.355313D-01  0.554665D+00
     11  0.000000D+00  0.000000D+00 -0.484746D-01  0.000000D+00  0.000000D+00
     12 -0.107911D-01  0.158242D-01  0.000000D+00 -0.250185D-01  0.243872D+00
     13  0.323263D-01  0.354654D-01  0.000000D+00 -0.130207D-01 -0.320927D+00
     14  0.000000D+00  0.000000D+00  0.303702D-01  0.000000D+00  0.000000D+00
     15  0.460593D-02  0.978682D-02  0.000000D+00 -0.174809D+00 -0.254734D+00
               11            12            13            14            15 
     11  0.579751D-01
     12  0.000000D+00  0.448582D+00
     13  0.000000D+00 -0.250806D+00  0.248378D+00
     14 -0.377129D-01  0.000000D+00  0.000000D+00  0.256758D-01
     15  0.000000D+00 -0.424872D+00  0.242083D+00  0.000000D+00  0.603576D+00
 Force constants in internal coordinates: 
                1             2             3             4             5 
      1  0.393019D+00
      2  0.238131D-01  0.256852D+00
      3  0.549710D-02  0.167734D-01  0.207774D+00
      4 -0.128086D-01  0.231554D-01  0.149570D+00  0.721613D+00
      5  0.477970D-01  0.543038D-01 -0.264382D-01  0.222091D-01  0.248260D+00
      6  0.147042D-01  0.204453D-01  0.918615D-01  0.114901D-01 -0.113694D-01
      7  0.101460D-01 -0.750605D-01  0.122175D+00  0.118482D+00 -0.257298D-01
      8  0.000000D+00  0.000000D+00  0.000000D+00  0.000000D+00  0.000000D+00
      9  0.000000D+00  0.000000D+00  0.000000D+00  0.000000D+00  0.000000D+00
                6             7             8             9 
      6  0.521292D+00
      7  0.633585D-01  0.665888D+00
      8  0.000000D+00  0.000000D+00  0.219602D-01
      9  0.000000D+00  0.000000D+00  0.291722D-01  0.110009D+00
 Leave Link  716 at Sun Mar  6 18:50:48 2022, MaxMem= 16106127360 cpu:               0.8 elap:               0.0
 (Enter /sw/contrib/gaussian/g16/B01/g16/l103.exe)

 GradGradGradGradGradGradGradGradGradGradGradGradGradGradGradGradGradGrad
 Berny optimization.
 Search for a local minimum.
 Step number   1 out of a maximum of    2
 All quantities printed in internal units (Hartrees-Bohrs-Radians)
 Second derivative matrix not updated -- analytic derivatives used.
 The second derivative matrix:
                          r1        r2        r3        r4        a1
           r1           0.39302
           r2           0.02381   0.25685
           r3           0.00550   0.01677   0.20777
           r4          -0.01281   0.02316   0.14957   0.72161
           a1           0.04780   0.05430  -0.02644   0.02221   0.24826
           a2           0.01470   0.02045   0.09186   0.01149  -0.01137
           a3           0.01015  -0.07506   0.12217   0.11848  -0.02573
           d1           0.00000   0.00000   0.00000   0.00000   0.00000
           d2           0.00000   0.00000   0.00000   0.00000   0.00000
                          a2        a3        d1        d2
           a2           0.52129
           a3           0.06336   0.66589
           d1           0.00000   0.00000   0.02196
           d2           0.00000   0.00000   0.02917   0.11001
 ITU=  0
     Eigenvalues ---    0.01317   0.11880   0.12365   0.20404   0.26401
     Eigenvalues ---    0.41278   0.51402   0.60889   0.88731
 Angle between quadratic step and forces=   8.64 degrees.
 Linear search not attempted -- first point.
 Variable       Old X    -DE/DX   Delta X   Delta X   Delta X     New X
                                 (Linear)    (Quad)   (Total)
    r1        1.88912  -0.01118   0.00000  -0.02844  -0.02844   1.86067
    r2        2.69614  -0.00049   0.00000   0.00078   0.00078   2.69692
    r3        2.60992  -0.00038   0.00000  -0.00217  -0.00217   2.60775
    r4        2.25782   0.00064   0.00000   0.00078   0.00078   2.25860
    a1        1.75642  -0.00130   0.00000  -0.00019  -0.00019   1.75623
    a2        1.97463  -0.00010   0.00000   0.00093   0.00093   1.97555
    a3        1.99550  -0.00040   0.00000   0.00008   0.00008   1.99558
    d1        0.00000   0.00000   0.00000   0.00000   0.00000   0.00000
    d2        0.00000   0.00000   0.00000   0.00000   0.00000   0.00000
         Item               Value     Threshold  Converged?
 Maximum Force            0.011177     0.000450     NO 
 RMS     Force            0.003765     0.000300     NO 
 Maximum Displacement     0.028444     0.001800     NO 
 RMS     Displacement     0.009521     0.001200     NO 
 Predicted change in Energy=-1.594884D-04
                       ----------------------------
                       ! Non-Optimized Parameters !
                       ! (Angstroms and Degrees)  !
 ----------------------                            ----------------------
 !      Name          Value   Derivative information (Atomic Units)     !
 ------------------------------------------------------------------------
 !       r1          0.9846   -DE/DX =   -0.0112                        !
 !       r2          1.4271   -DE/DX =   -0.0005                        !
 !       r3          1.38     -DE/DX =   -0.0004                        !
 !       r4          1.1952   -DE/DX =    0.0006                        !
 !       a1        100.6245   -DE/DX =   -0.0013                        !
 !       a2        113.1908   -DE/DX =   -0.0001                        !
 !       a3        114.3383   -DE/DX =   -0.0004                        !
 !       d1          0.0      -DE/DX =    0.0                           !
 !       d2          0.0      -DE/DX =    0.0                           !
 ------------------------------------------------------------------------
 GradGradGradGradGradGradGradGradGradGradGradGradGradGradGradGradGradGrad

 Leave Link  103 at Sun Mar  6 18:50:48 2022, MaxMem= 16106127360 cpu:               0.6 elap:               0.0
 (Enter /sw/contrib/gaussian/g16/B01/g16/l9999.exe)

 ----------------------------------------------------------------------

 Electric dipole moment (input orientation):
 (Debye = 10**-18 statcoulomb cm , SI units = C m)
                  (au)            (Debye)         (10**-30 SI)
   Tot        0.435970D+00      0.110812D+01      0.369631D+01
   x         -0.109420D+00     -0.278117D+00     -0.927697D+00
   y          0.000000D+00      0.000000D+00      0.000000D+00
   z         -0.422015D+00     -0.107266D+01     -0.357800D+01

 Dipole polarizability, Alpha (input orientation).
 (esu units = cm**3 , SI units = C**2 m**2 J**-1)
 Alpha(0;0):
               (au)            (10**-24 esu)      (10**-40 SI)
   iso        0.262067D+02      0.388343D+01      0.432090D+01
   aniso      0.147271D+02      0.218233D+01      0.242818D+01
   xx         0.292676D+02      0.433701D+01      0.482557D+01
   yx         0.000000D+00      0.000000D+00      0.000000D+00
   yy         0.176532D+02      0.261593D+01      0.291062D+01
   zx        -0.399324D+01     -0.591738D+00     -0.658397D+00
   zy         0.000000D+00      0.000000D+00      0.000000D+00
   zz         0.316993D+02      0.469735D+01      0.522651D+01

 ----------------------------------------------------------------------

 Dipole orientation:
     1         -0.00000000          0.00000000          0.00000000
     8         -0.47413001          0.00000000         -1.82865203
     8          1.96599272         -0.00000000         -2.97537792
     7          3.91492048         -0.00000000         -1.23948107
     8          3.24134442          0.00000000          0.91552702

 Electric dipole moment (dipole orientation):
 (Debye = 10**-18 statcoulomb cm , SI units = C m)
                  (au)            (Debye)         (10**-30 SI)
   Tot        0.435970D+00      0.110812D+01      0.369631D+01
   x          0.000000D+00      0.000000D+00      0.000000D+00
   y          0.000000D+00      0.000000D+00      0.000000D+00
   z          0.435970D+00      0.110812D+01      0.369631D+01

 Dipole polarizability, Alpha (dipole orientation).
 (esu units = cm**3 , SI units = C**2 m**2 J**-1)
 Alpha(0;0):
               (au)            (10**-24 esu)      (10**-40 SI)
   iso        0.262067D+02      0.388343D+01      0.432090D+01
   aniso      0.147271D+02      0.218233D+01      0.242818D+01
   xx         0.313610D+02      0.464723D+01      0.517074D+01
   yx         0.000000D+00      0.000000D+00      0.000000D+00
   yy         0.176532D+02      0.261593D+01      0.291062D+01
   zx         0.408094D+01      0.604733D+00      0.672856D+00
   zy         0.000000D+00      0.000000D+00      0.000000D+00
   zz         0.296058D+02      0.438713D+01      0.488134D+01

 ----------------------------------------------------------------------
 1\1\GINC-N2108\Freq\RMP2-FC\Aug-CC-pVTZ\H1N1O3\CGAVINH\06-Mar-2022\1\\
 #p freq mp2/aug-cc-pvtz density=current\\title\\0,1\H\O,1,r1\O,2,r2,1,
 a1\N,3,r3,2,a2,1,d1,0\O,4,r4,3,a3,2,d2,0\\r1=0.99967829\r2=1.42673666\
 r3=1.38110764\r4=1.19478846\a1=100.6355057\a2=113.13777052\a3=114.3339
 2022\d1=0.\d2=0.\\Version=ES64L-G16RevB.01\State=1-A'\HF=-279.5054143\
 MP2=-280.4550869\RMSD=4.624e-09\RMSF=4.009e-03\ZeroPoint=0.0235025\The
 rmal=0.0272916\Dipole=-0.1094195,0.,-0.4220155\DipoleDeriv=0.3224246,0
 .,0.0357828,0.,0.2958659,0.,-0.0316052,0.,0.2031355,-0.5294626,0.,0.28
 1331,0.,-0.2522658,0.,-0.0956654,0.,-0.1262601,0.0029716,0.,0.3328387,
 0.,-0.0105451,0.,0.4394879,0.,-0.9197954,0.197546,0.,-0.1371289,0.,0.0
 122734,0.,-0.6672688,0.,1.7139652,0.0065204,0.,-0.5128237,0.,-0.045328
 4,0.,0.3550515,0.,-0.8710452\Polar=29.2675811,0.,17.6531785,-3.9932444
 ,0.,31.6992803\Quadrupole=0.1437426,0.5993042,-0.7430467,0.,1.4205295,
 0.\PG=CS [SG(H1N1O3)]\NImag=0\\0.07548120,0.,0.01221856,0.02493629,0.,
 0.39301945,-0.05663733,0.,-0.00379755,0.28511931,0.,-0.00831943,0.,0.,
 0.01823461,0.03046771,0.,-0.37656121,-0.01327070,0.,0.47880536,-0.0242
 0289,0.,-0.01663108,-0.16989058,0.,-0.08984156,0.30204932,0.,-0.004265
 80,0.,0.,-0.01942771,0.,0.,0.04179787,-0.04215151,0.,-0.02005677,0.009
 84175,0.,-0.09605902,0.08086166,0.,0.31594371,-0.00597392,0.,0.0060748
 8,-0.08434218,0.,0.04031828,-0.14342121,0.,-0.03553125,0.55466467,0.,0
 .00800414,0.,0.,0.02020826,0.,0.,-0.04847460,0.,0.,0.05797505,-0.02004
 716,0.,0.01209941,0.01115753,0.,-0.01079105,0.01582417,0.,-0.02501855,
 0.24387180,0.,0.44858223,0.01133294,0.,-0.01058253,0.02575078,0.,0.032
 32627,0.03546536,0.,-0.01302065,-0.32092735,0.,-0.25080633,0.24837828,
 0.,-0.00763746,0.,0.,-0.01069574,0.,0.,0.03037025,0.,0.,-0.03771285,0.
 ,0.,0.02567581,0.00679468,0.,-0.00850087,-0.00393103,0.,0.00460593,0.0
 0978682,0.,-0.17480937,-0.25473371,0.,-0.42487204,0.24208324,0.,0.6035
 7635\\-0.00068955,0.,-0.01117719,0.00028655,0.,0.01064881,0.00028905,0
 .,0.00090668,-0.00037416,0.,-0.00082329,0.00048811,0.,0.00044500\\\@


 TERRY FORSTER, PORTLY ATLANTA BRAVES RELIEVER,
 ANNOUNCING THAT HE WAS GOING TO A FAT FARM:
 "A WAIST IS A TERRIBLE THING TO MIND."
 Job cpu time:       0 days  2 hours  0 minutes 43.0 seconds.
 Elapsed time:       0 days  0 hours  4 minutes 22.1 seconds.
 File lengths (MBytes):  RWF=   7239 Int=      0 D2E=      0 Chk=      8 Scr=      1
 Normal termination of Gaussian 16 at Sun Mar  6 18:50:49 2022.
