title                                                                   
Freq      RMP2-FC                                                     Aug-CC-pVTZ         
Number of atoms                            I                5
Info1-9                                    I   N=           9
          33          24           0           0           0         100
           6           2           1
Full Title                                 C   N=           1
title       
Route                                      C   N=           4
#p freq mp2/aug-cc-pvtz density=current         
Charge                                     I                0
Multiplicity                               I                1
Number of electrons                        I               32
Number of alpha electrons                  I               16
Number of beta electrons                   I               16
Number of basis functions                  I              207
Number of independent functions            I              207
Number of point charges in /Mol/           I                0
Number of translation vectors              I                0
Atomic numbers                             I   N=           5
           1           8           8           7           8
Nuclear charges                            R   N=           5
  1.00000000E+00  8.00000000E+00  8.00000000E+00  7.00000000E+00  8.00000000E+00
Current cartesian coordinates              R   N=          15
  2.09274557E+00 -1.12686795E+00  0.00000000E+00  2.48534600E+00  6.93365948E-01
  0.00000000E+00  6.42768434E-17  1.73846616E+00  0.00000000E+00 -1.87566716E+00
 -7.63423762E-02  0.00000000E+00 -1.10573044E+00 -2.22417403E+00  0.00000000E+00
Number of symbols in /Mol/                 I                0
Force Field                                I                0
Atom Types                                 C   N=           5
                                                            
Int Atom Types                             I   N=           5
           0           0           0           0           0
MM charges                                 R   N=           5
  0.00000000E+00  0.00000000E+00  0.00000000E+00  0.00000000E+00  0.00000000E+00
Integer atomic weights                     I   N=           5
           1          16          16          14          16
Real atomic weights                        R   N=           5
  1.00782504E+00  1.59949146E+01  1.59949146E+01  1.40030740E+01  1.59949146E+01
Atom fragment info                         I   N=           5
           0           0           0           0           0
Atom residue num                           I   N=           5
           0           0           0           0           0
Nuclear spins                              I   N=           5
           1           0           0           2           0
Nuclear ZEff                               R   N=           5
 -1.00000000E+00 -5.60000000E+00 -5.60000000E+00 -4.55000000E+00 -5.60000000E+00
Nuclear ZNuc                               R   N=           5
  1.00000000E+00  8.00000000E+00  8.00000000E+00  7.00000000E+00  8.00000000E+00
Nuclear QMom                               R   N=           5
  0.00000000E+00  0.00000000E+00  0.00000000E+00  2.04400000E+00  0.00000000E+00
Nuclear GFac                               R   N=           5
  2.79284600E+00  0.00000000E+00  0.00000000E+00  4.03761000E-01  0.00000000E+00
MicOpt                                     I   N=           5
          -1          -1          -1          -1          -1
Number of residues                         I                0
Number of secondary structures             I                0
SymInf integers                            I   N=          26
           1           2           1           1           1           1
           1          -1           0           0           0           0
           0           0           0           0           0           0
           0           0           0           0           0           0
           0           0
RotTr to input orientation                 R   N=          12
 -9.77520938E-01  0.00000000E+00  2.10838366E-01  2.10838366E-01  0.00000000E+00
  9.77520938E-01  0.00000000E+00  1.00000000E+00  0.00000000E+00  2.28328961E+00
  0.00000000E+00  6.60305958E-01
Number of contracted shells                I               65
Number of primitive shells                 I              119
Pure/Cartesian d shells                    I                0
Pure/Cartesian f shells                    I                0
Highest angular momentum                   I                3
Largest degree of contraction              I                7
Shell types                                I   N=          65
           0           0           0           0           1           1
           1          -2          -2           0           0           0
           0           0           1           1           1           1
          -2          -2          -2          -3          -3           0
           0           0           0           0           1           1
           1           1          -2          -2          -2          -3
          -3           0           0           0           0           0
           1           1           1           1          -2          -2
          -2          -3          -3           0           0           0
           0           0           1           1           1           1
          -2          -2          -2          -3          -3
Number of primitives per shell             I   N=          65
           3           1           1           1           1           1
           1           1           1           7           6           1
           1           1           3           1           1           1
           1           1           1           1           1           7
           6           1           1           1           3           1
           1           1           1           1           1           1
           1           7           6           1           1           1
           3           1           1           1           1           1
           1           1           1           7           6           1
           1           1           3           1           1           1
           1           1           1           1           1
Shell to atom map                          I   N=          65
           1           1           1           1           1           1
           1           1           1           2           2           2
           2           2           2           2           2           2
           2           2           2           2           2           3
           3           3           3           3           3           3
           3           3           3           3           3           3
           3           4           4           4           4           4
           4           4           4           4           4           4
           4           4           4           5           5           5
           5           5           5           5           5           5
           5           5           5           5           5
Primitive exponents                        R   N=         119
  3.38700000E+01  5.09500000E+00  1.15900000E+00  3.25800000E-01  1.02700000E-01
  2.52600000E-02  1.40700000E+00  3.88000000E-01  1.02000000E-01  1.05700000E+00
  2.47000000E-01  1.53300000E+04  2.29900000E+03  5.22400000E+02  1.47300000E+02
  4.75500000E+01  1.67600000E+01  6.20700000E+00  5.22400000E+02  1.47300000E+02
  4.75500000E+01  1.67600000E+01  6.20700000E+00  6.88200000E-01  1.75200000E+00
  2.38400000E-01  7.37600000E-02  3.44600000E+01  7.74900000E+00  2.28000000E+00
  7.15600000E-01  2.14000000E-01  5.97400000E-02  2.31400000E+00  6.45000000E-01
  2.14000000E-01  1.42800000E+00  5.00000000E-01  1.53300000E+04  2.29900000E+03
  5.22400000E+02  1.47300000E+02  4.75500000E+01  1.67600000E+01  6.20700000E+00
  5.22400000E+02  1.47300000E+02  4.75500000E+01  1.67600000E+01  6.20700000E+00
  6.88200000E-01  1.75200000E+00  2.38400000E-01  7.37600000E-02  3.44600000E+01
  7.74900000E+00  2.28000000E+00  7.15600000E-01  2.14000000E-01  5.97400000E-02
  2.31400000E+00  6.45000000E-01  2.14000000E-01  1.42800000E+00  5.00000000E-01
  1.14200000E+04  1.71200000E+03  3.89300000E+02  1.10000000E+02  3.55700000E+01
  1.25400000E+01  4.64400000E+00  3.89300000E+02  1.10000000E+02  3.55700000E+01
  1.25400000E+01  4.64400000E+00  5.11800000E-01  1.29300000E+00  1.78700000E-01
  5.76000000E-02  2.66300000E+01  5.94800000E+00  1.74200000E+00  5.55000000E-01
  1.72500000E-01  4.91000000E-02  1.65400000E+00  4.69000000E-01  1.51000000E-01
  1.09300000E+00  3.64000000E-01  1.53300000E+04  2.29900000E+03  5.22400000E+02
  1.47300000E+02  4.75500000E+01  1.67600000E+01  6.20700000E+00  5.22400000E+02
  1.47300000E+02  4.75500000E+01  1.67600000E+01  6.20700000E+00  6.88200000E-01
  1.75200000E+00  2.38400000E-01  7.37600000E-02  3.44600000E+01  7.74900000E+00
  2.28000000E+00  7.15600000E-01  2.14000000E-01  5.97400000E-02  2.31400000E+00
  6.45000000E-01  2.14000000E-01  1.42800000E+00  5.00000000E-01
Contraction coefficients                   R   N=         119
  2.54948632E-02  1.90362766E-01  8.52162022E-01  1.00000000E+00  1.00000000E+00
  1.00000000E+00  1.00000000E+00  1.00000000E+00  1.00000000E+00  1.00000000E+00
  1.00000000E+00  5.19808943E-04  4.02025621E-03  2.07128267E-02  8.10105536E-02
  2.35962985E-01  4.42653446E-01  3.57064423E-01 -4.42115008E-05 -1.22591041E-03
 -1.05517725E-02 -6.74452633E-02 -1.71198607E-01  1.07329856E+00  1.00000000E+00
  1.00000000E+00  1.00000000E+00  4.11634896E-02  2.57762836E-01  8.02419274E-01
  1.00000000E+00  1.00000000E+00  1.00000000E+00  1.00000000E+00  1.00000000E+00
  1.00000000E+00  1.00000000E+00  1.00000000E+00  5.19808943E-04  4.02025621E-03
  2.07128267E-02  8.10105536E-02  2.35962985E-01  4.42653446E-01  3.57064423E-01
 -4.42115008E-05 -1.22591041E-03 -1.05517725E-02 -6.74452633E-02 -1.71198607E-01
  1.07329856E+00  1.00000000E+00  1.00000000E+00  1.00000000E+00  4.11634896E-02
  2.57762836E-01  8.02419274E-01  1.00000000E+00  1.00000000E+00  1.00000000E+00
  1.00000000E+00  1.00000000E+00  1.00000000E+00  1.00000000E+00  1.00000000E+00
  5.34563860E-04  4.13435660E-03  2.12335358E-02  8.25006224E-02  2.38138871E-01
  4.42551547E-01  3.53757422E-01 -4.89867350E-05 -1.19527323E-03 -1.03490714E-02
 -6.48680190E-02 -1.71552477E-01  1.07289568E+00  1.00000000E+00  1.00000000E+00
  1.00000000E+00  3.98072123E-02  2.49002660E-01  8.10479727E-01  1.00000000E+00
  1.00000000E+00  1.00000000E+00  1.00000000E+00  1.00000000E+00  1.00000000E+00
  1.00000000E+00  1.00000000E+00  5.19808943E-04  4.02025621E-03  2.07128267E-02
  8.10105536E-02  2.35962985E-01  4.42653446E-01  3.57064423E-01 -4.42115008E-05
 -1.22591041E-03 -1.05517725E-02 -6.74452633E-02 -1.71198607E-01  1.07329856E+00
  1.00000000E+00  1.00000000E+00  1.00000000E+00  4.11634896E-02  2.57762836E-01
  8.02419274E-01  1.00000000E+00  1.00000000E+00  1.00000000E+00  1.00000000E+00
  1.00000000E+00  1.00000000E+00  1.00000000E+00  1.00000000E+00
Coordinates of each shell                  R   N=         195
  2.09274557E+00 -1.12686795E+00  0.00000000E+00  2.09274557E+00 -1.12686795E+00
  0.00000000E+00  2.09274557E+00 -1.12686795E+00  0.00000000E+00  2.09274557E+00
 -1.12686795E+00  0.00000000E+00  2.09274557E+00 -1.12686795E+00  0.00000000E+00
  2.09274557E+00 -1.12686795E+00  0.00000000E+00  2.09274557E+00 -1.12686795E+00
  0.00000000E+00  2.09274557E+00 -1.12686795E+00  0.00000000E+00  2.09274557E+00
 -1.12686795E+00  0.00000000E+00  2.48534600E+00  6.93365948E-01  0.00000000E+00
  2.48534600E+00  6.93365948E-01  0.00000000E+00  2.48534600E+00  6.93365948E-01
  0.00000000E+00  2.48534600E+00  6.93365948E-01  0.00000000E+00  2.48534600E+00
  6.93365948E-01  0.00000000E+00  2.48534600E+00  6.93365948E-01  0.00000000E+00
  2.48534600E+00  6.93365948E-01  0.00000000E+00  2.48534600E+00  6.93365948E-01
  0.00000000E+00  2.48534600E+00  6.93365948E-01  0.00000000E+00  2.48534600E+00
  6.93365948E-01  0.00000000E+00  2.48534600E+00  6.93365948E-01  0.00000000E+00
  2.48534600E+00  6.93365948E-01  0.00000000E+00  2.48534600E+00  6.93365948E-01
  0.00000000E+00  2.48534600E+00  6.93365948E-01  0.00000000E+00 -5.99098992E-17
  1.73846616E+00  0.00000000E+00 -5.99098992E-17  1.73846616E+00  0.00000000E+00
 -5.99098992E-17  1.73846616E+00  0.00000000E+00 -5.99098992E-17  1.73846616E+00
  0.00000000E+00 -5.99098992E-17  1.73846616E+00  0.00000000E+00 -5.99098992E-17
  1.73846616E+00  0.00000000E+00 -5.99098992E-17  1.73846616E+00  0.00000000E+00
 -5.99098992E-17  1.73846616E+00  0.00000000E+00 -5.99098992E-17  1.73846616E+00
  0.00000000E+00 -5.99098992E-17  1.73846616E+00  0.00000000E+00 -5.99098992E-17
  1.73846616E+00  0.00000000E+00 -5.99098992E-17  1.73846616E+00  0.00000000E+00
 -5.99098992E-17  1.73846616E+00  0.00000000E+00 -5.99098992E-17  1.73846616E+00
  0.00000000E+00 -1.87566716E+00 -7.63423762E-02  0.00000000E+00 -1.87566716E+00
 -7.63423762E-02  0.00000000E+00 -1.87566716E+00 -7.63423762E-02  0.00000000E+00
 -1.87566716E+00 -7.63423762E-02  0.00000000E+00 -1.87566716E+00 -7.63423762E-02
  0.00000000E+00 -1.87566716E+00 -7.63423762E-02  0.00000000E+00 -1.87566716E+00
 -7.63423762E-02  0.00000000E+00 -1.87566716E+00 -7.63423762E-02  0.00000000E+00
 -1.87566716E+00 -7.63423762E-02  0.00000000E+00 -1.87566716E+00 -7.63423762E-02
  0.00000000E+00 -1.87566716E+00 -7.63423762E-02  0.00000000E+00 -1.87566716E+00
 -7.63423762E-02  0.00000000E+00 -1.87566716E+00 -7.63423762E-02  0.00000000E+00
 -1.87566716E+00 -7.63423762E-02  0.00000000E+00 -1.10573044E+00 -2.22417403E+00
  0.00000000E+00 -1.10573044E+00 -2.22417403E+00  0.00000000E+00 -1.10573044E+00
 -2.22417403E+00  0.00000000E+00 -1.10573044E+00 -2.22417403E+00  0.00000000E+00
 -1.10573044E+00 -2.22417403E+00  0.00000000E+00 -1.10573044E+00 -2.22417403E+00
  0.00000000E+00 -1.10573044E+00 -2.22417403E+00  0.00000000E+00 -1.10573044E+00
 -2.22417403E+00  0.00000000E+00 -1.10573044E+00 -2.22417403E+00  0.00000000E+00
 -1.10573044E+00 -2.22417403E+00  0.00000000E+00 -1.10573044E+00 -2.22417403E+00
  0.00000000E+00 -1.10573044E+00 -2.22417403E+00  0.00000000E+00 -1.10573044E+00
 -2.22417403E+00  0.00000000E+00 -1.10573044E+00 -2.22417403E+00  0.00000000E+00
Num ILSW                                   I              100
ILSW                                       I   N=         100
           0           0           0           0           2           0
           0           0           0           0           0          -1
           5           0           0           0           2           0
           0           0           0           0           1           0
           1           0           0           0           0           0
           0           0      100000           0          -1           0
           0           0           0           0           0           0
           0           0           0           1           1           0
           0 -2000000000           1           0           0           0
           0           0           4          52           0           0
           0           0           0           0           0           0
           0           0           0           5           4           1
           0           0           0           0           0           0
           0           0           0           0           0           0
           0           0           0           0           0           0
           0           0           0           0           0           0
           0           0           0           0
Num RLSW                                   I               52
RLSW                                       R   N=          52
  1.00000000E+00  1.00000000E+00  1.00000000E+00  1.00000000E+00  1.00000000E+00
  0.00000000E+00  0.00000000E+00  1.00000000E+00  0.00000000E+00  0.00000000E+00
  0.00000000E+00  0.00000000E+00  1.00000000E+00  0.00000000E+00  0.00000000E+00
  0.00000000E+00  0.00000000E+00  1.00000000E+00  0.00000000E+00  0.00000000E+00
  0.00000000E+00  0.00000000E+00  1.00000000E+00  0.00000000E+00  0.00000000E+00
  0.00000000E+00  0.00000000E+00  1.00000000E+00  0.00000000E+00  0.00000000E+00
  0.00000000E+00  0.00000000E+00  1.00000000E+00  0.00000000E+00  0.00000000E+00
  0.00000000E+00  0.00000000E+00  0.00000000E+00  1.00000000E+00  1.00000000E+00
  0.00000000E+00  1.00000000E+00  0.00000000E+00  0.00000000E+00  0.00000000E+00
  0.00000000E+00  0.00000000E+00  0.00000000E+00  0.00000000E+00  0.00000000E+00
  0.00000000E+00  0.00000000E+00
MxBond                                     I                2
NBond                                      I   N=           5
           1           2           2           2           1
IBond                                      I   N=          10
           2           0           1           3           2           4
           3           5           4           0
RBond                                      R   N=          10
  1.00000000E+00  0.00000000E+00  1.00000000E+00  1.00000000E+00  1.00000000E+00
  1.00000000E+00  1.00000000E+00  2.00000000E+00  2.00000000E+00  0.00000000E+00
Virial Ratio                               R      2.002415138199351E+00
SCF Energy                                 R     -2.795040632634314E+02
MP2 Energy                                 R     -2.804550485090402E+02
Total Energy                               R     -2.804550485090402E+02
Post-SCF wavefunction norm                 R      1.584986232543948E+00
RMS Force                                  R      5.570761375601089E-03
RMS Density                                R      5.223737537099166E-09
NImag                                      I                0
Job Status                                 I                1
Nuclear derivative order                   I                2
External E-field                           R   N=          35
  0.00000000E+00  0.00000000E+00  0.00000000E+00  0.00000000E+00  0.00000000E+00
  0.00000000E+00  0.00000000E+00  0.00000000E+00  0.00000000E+00  0.00000000E+00
  0.00000000E+00  0.00000000E+00  0.00000000E+00  0.00000000E+00  0.00000000E+00
  0.00000000E+00  0.00000000E+00  0.00000000E+00  0.00000000E+00  0.00000000E+00
  0.00000000E+00  0.00000000E+00  0.00000000E+00  0.00000000E+00  0.00000000E+00
  0.00000000E+00  0.00000000E+00  0.00000000E+00  0.00000000E+00  0.00000000E+00
  0.00000000E+00  0.00000000E+00  0.00000000E+00  0.00000000E+00  0.00000000E+00
IOpCl                                      I                0
IROHF                                      I                0
Alpha Orbital Energies                     R   N=         207
 -2.07226653E+01 -2.06866192E+01 -2.06693949E+01 -1.58280645E+01 -1.63763687E+00
 -1.50194140E+00 -1.29501210E+00 -9.62258453E-01 -8.32088529E-01 -7.56315792E-01
 -7.38193008E-01 -6.37274061E-01 -6.18469666E-01 -6.15437854E-01 -5.06937663E-01
 -4.98301577E-01  3.51460820E-02  5.63632498E-02  9.50218282E-02  1.00307253E-01
  1.20002891E-01  1.22480379E-01  1.49324955E-01  1.52010423E-01  1.77162095E-01
  1.80433749E-01  1.89761351E-01  2.11010259E-01  2.16639744E-01  2.41334028E-01
  2.46125114E-01  2.68699176E-01  3.12585330E-01  3.16925933E-01  3.38062626E-01
  3.42318223E-01  3.45971440E-01  3.92070681E-01  4.49179490E-01  4.87826001E-01
  5.04990611E-01  5.17562537E-01  5.44426721E-01  5.61667288E-01  5.94257170E-01
  6.18149801E-01  6.37056719E-01  6.91461715E-01  7.17370543E-01  7.23810862E-01
  7.40963947E-01  7.64401698E-01  7.67411449E-01  7.95364511E-01  8.05526762E-01
  8.38245648E-01  8.42399031E-01  8.51378956E-01  8.83949732E-01  9.07089921E-01
  9.29583416E-01  9.45236032E-01  9.54252737E-01  1.01791497E+00  1.03259470E+00
  1.06334357E+00  1.06585311E+00  1.09491511E+00  1.14403185E+00  1.15645709E+00
  1.16758587E+00  1.22109152E+00  1.22685645E+00  1.24517987E+00  1.35477092E+00
  1.36086722E+00  1.36996738E+00  1.46814354E+00  1.48460182E+00  1.50455393E+00
  1.54290391E+00  1.59588379E+00  1.59685800E+00  1.60400991E+00  1.62769528E+00
  1.69309101E+00  1.74034240E+00  1.79880282E+00  1.82977280E+00  1.88446055E+00
  1.89464745E+00  1.93111646E+00  1.97800166E+00  1.98918794E+00  2.05513279E+00
  2.12109169E+00  2.12976912E+00  2.16496540E+00  2.18904074E+00  2.24322740E+00
  2.26007094E+00  2.29336536E+00  2.35154972E+00  2.36512946E+00  2.38482899E+00
  2.39799919E+00  2.43207948E+00  2.47069718E+00  2.47853598E+00  2.53008121E+00
  2.53677379E+00  2.54628676E+00  2.55495511E+00  2.61159202E+00  2.62962457E+00
  2.66799955E+00  2.66915566E+00  2.75080004E+00  2.80706432E+00  2.81372923E+00
  2.83905407E+00  2.91759979E+00  2.98124891E+00  3.04180423E+00  3.04894135E+00
  3.11396339E+00  3.11951809E+00  3.17194011E+00  3.21299454E+00  3.30579381E+00
  3.33218602E+00  3.35946389E+00  3.47593564E+00  3.66744764E+00  3.86822976E+00
  3.93122723E+00  4.18397761E+00  4.22007972E+00  4.22226074E+00  4.24722294E+00
  4.36862147E+00  4.49504642E+00  4.52818972E+00  4.54427270E+00  4.59763989E+00
  4.69011704E+00  4.80453452E+00  4.89638219E+00  4.91470568E+00  4.93652752E+00
  5.00050704E+00  5.00638340E+00  5.10407404E+00  5.12416931E+00  5.17893506E+00
  5.23909052E+00  5.25668590E+00  5.31473073E+00  5.34226203E+00  5.35741040E+00
  5.55661867E+00  5.62648434E+00  5.69929335E+00  5.89372334E+00  5.98707794E+00
  6.26304347E+00  6.29356389E+00  6.35852791E+00  6.37481635E+00  6.59648193E+00
  6.65745023E+00  6.65780482E+00  6.68791451E+00  6.72114927E+00  6.80145937E+00
  6.80367640E+00  6.84209898E+00  6.96373782E+00  7.02019732E+00  7.06490386E+00
  7.07731960E+00  7.13237431E+00  7.16844014E+00  7.16983033E+00  7.19886572E+00
  7.23106631E+00  7.24519142E+00  7.25972859E+00  7.34494942E+00  7.38484486E+00
  7.42279553E+00  7.43819149E+00  7.45124237E+00  7.53946982E+00  7.66181282E+00
  7.66209645E+00  7.78897997E+00  7.87960812E+00  7.94677865E+00  8.05092661E+00
  8.30592896E+00  8.49914265E+00  8.64674708E+00  1.35903402E+01  1.46647308E+01
  1.50585515E+01  1.54867606E+01
Alpha MO coefficients                      R   N=       42849
  6.47971276E-05 -1.63297731E-05 -1.15075121E-03  1.03450642E-05 -5.15230285E-05
  4.21935447E-05  0.00000000E+00 -9.10786736E-05 -2.90079676E-04  0.00000000E+00
  2.34286917E-06 -3.58481057E-04  0.00000000E+00  4.20377921E-05  0.00000000E+00
  0.00000000E+00 -2.45131953E-05  1.32015409E-05  2.32186694E-04  0.00000000E+00
  0.00000000E+00 -4.03537039E-05 -2.13980511E-04  2.97032316E-03 -9.29049182E-05
 -1.03840928E-04  3.55146065E-03  2.50214808E-03  1.02777988E-04 -5.31064319E-05
  0.00000000E+00 -7.29635355E-04  2.85211910E-04  0.00000000E+00 -1.96915649E-03
  1.11822791E-03  0.00000000E+00 -5.40395778E-04  3.78847664E-05  0.00000000E+00
  2.04609162E-05  0.00000000E+00  0.00000000E+00 -8.86739588E-06  4.41015277E-05
 -4.43138210E-04  0.00000000E+00  0.00000000E+00  4.26979991E-04 -6.62293297E-04
 -3.61569275E-04  0.00000000E+00  0.00000000E+00  5.41870389E-04 -7.49511401E-04
  0.00000000E+00  7.41149877E-05 -5.24499129E-05  0.00000000E+00  0.00000000E+00
 -2.68854995E-05  1.07952919E-04  0.00000000E+00  2.07027279E-04 -5.11570408E-05
  0.00000000E+00  0.00000000E+00 -1.69652132E-04  3.00403069E-04  9.76907949E-01
 -9.17211529E-03  4.34011076E-02  4.59365175E-04 -2.22935680E-03  4.39585357E-04
 -2.15675844E-03  0.00000000E+00 -3.07291414E-04  2.26234629E-03  0.00000000E+00
 -2.30734189E-03 -4.79869045E-04  0.00000000E+00 -2.24227906E-04  1.01055264E-04
  0.00000000E+00  6.60802182E-06  0.00000000E+00  0.00000000E+00 -3.78691302E-06
  3.67776644E-05  8.28013551E-04  0.00000000E+00  0.00000000E+00 -4.75394493E-04
 -1.74355360E-04 -1.38651619E-04  0.00000000E+00  0.00000000E+00 -5.55610951E-04
  3.55210933E-04  0.00000000E+00 -6.99485865E-06 -7.96585143E-05  0.00000000E+00
  0.00000000E+00 -9.13102612E-06  4.84343399E-05  0.00000000E+00  9.23756154E-05
  9.06224302E-07  0.00000000E+00  0.00000000E+00 -3.34719622E-04  3.82045954E-04
  1.07013679E-04  4.73094255E-04 -3.24298019E-04 -7.48135803E-04  3.83141171E-04
 -4.47282775E-05 -1.00252732E-04  0.00000000E+00  7.05879467E-04  1.09862305E-03
  0.00000000E+00 -7.38942443E-04 -6.50642935E-04  0.00000000E+00  1.97188455E-04
  2.07067894E-04  0.00000000E+00 -5.31066213E-05  0.00000000E+00  0.00000000E+00
  1.90427381E-05  9.23927153E-05 -4.18841011E-04  0.00000000E+00  0.00000000E+00
  3.49467515E-05  1.08296583E-03  2.16178189E-05  0.00000000E+00  0.00000000E+00
 -3.18565586E-04  3.41439288E-05  0.00000000E+00 -7.88550085E-05 -1.13622716E-04
  0.00000000E+00  0.00000000E+00 -9.75304013E-05  1.08201816E-04  0.00000000E+00
 -1.25125029E-04  4.38291933E-05  0.00000000E+00  0.00000000E+00  1.08505328E-05
  5.22845694E-04 -6.26926828E-04  3.95882707E-05 -6.70503043E-05  1.77415922E-04
 -2.02634440E-04 -2.96592392E-05 -4.09879829E-05  0.00000000E+00  1.69886889E-04
  2.42392496E-04  0.00000000E+00  5.47416164E-04  2.92918313E-04  0.00000000E+00
 -2.11169854E-04 -6.59408118E-05  0.00000000E+00 -1.24048106E-05  0.00000000E+00
  0.00000000E+00  3.83807806E-06  1.36866391E-05 -3.22598735E-06  0.00000000E+00
  0.00000000E+00 -1.62827554E-04  2.09847561E-05 -1.88995763E-05  0.00000000E+00
  0.00000000E+00 -1.61538626E-04 -3.05500841E-05  0.00000000E+00 -6.79298648E-06
 -9.62038423E-06  0.00000000E+00  0.00000000E+00 -2.28858115E-05  8.59694950E-06
  0.00000000E+00  3.91560572E-05  6.03863230E-05  0.00000000E+00  0.00000000E+00
  1.51829569E-04 -1.05204446E-04  4.08694189E-05  6.48569952E-05 -1.44896717E-04
 -3.49533836E-05  1.75970927E-05  1.13254871E-05  0.00000000E+00  2.41588555E-04
  6.91782599E-05  0.00000000E+00  1.31681203E-04  2.26640370E-05  0.00000000E+00
  1.29698942E-05  0.00000000E+00  0.00000000E+00 -1.34720671E-05  1.58704408E-05
  2.57451179E-05  0.00000000E+00  0.00000000E+00 -1.07159097E-04  6.18948099E-05
 -2.91669429E-04  2.91499754E-05 -1.82552310E-05 -5.68315118E-04  1.73174852E-04
  8.87226914E-06  1.32229163E-05  0.00000000E+00 -7.85034222E-06 -3.77709697E-05
  0.00000000E+00  2.09360710E-04  1.34439581E-04  0.00000000E+00 -4.85364532E-05
  4.59622043E-05  0.00000000E+00 -1.45540895E-06  0.00000000E+00  0.00000000E+00
 -8.62549617E-06 -1.17853755E-05  2.01710867E-05  0.00000000E+00  0.00000000E+00
  5.56328643E-05  1.06717348E-04  6.08898334E-05  0.00000000E+00  0.00000000E+00
 -4.10487457E-05 -8.74543694E-05  0.00000000E+00  8.24738920E-06  9.79347919E-06
  0.00000000E+00  0.00000000E+00 -1.56522205E-06 -2.47210251E-05  0.00000000E+00
 -1.43018772E-05 -3.46713106E-05  0.00000000E+00  0.00000000E+00 -4.64831304E-06
 -1.65769565E-05  6.54164874E-04  2.51197698E-05 -2.09306985E-05  2.35376459E-04
 -4.64837281E-04  1.48474953E-05  2.79637963E-05  0.00000000E+00 -5.79028412E-05
 -1.54260020E-04  0.00000000E+00  2.29142193E-04 -2.11334693E-04  0.00000000E+00
 -1.47450030E-04  1.53377297E-04  0.00000000E+00 -4.22791174E-06  0.00000000E+00
  0.00000000E+00 -2.61714921E-05 -1.04103214E-05 -4.82145259E-05  0.00000000E+00
  0.00000000E+00  5.69100137E-05  1.20656565E-04 -5.49374846E-05  0.00000000E+00
  0.00000000E+00  1.07658910E-05  9.51375291E-06  0.00000000E+00  2.65577488E-06
  3.91589787E-06  0.00000000E+00  0.00000000E+00 -8.12352925E-06 -8.54786488E-08
  0.00000000E+00  1.63099347E-06 -2.62922368E-05  0.00000000E+00  0.00000000E+00
  1.04956043E-04 -1.40945327E-04  2.32392994E-04  1.32003434E-03 -1.94594697E-04
 -4.04201521E-04  1.01605258E-03  5.37429840E-05 -4.43231198E-05  0.00000000E+00
  5.67058061E-04 -2.08866757E-03  0.00000000E+00  1.74723263E-04  4.44162500E-04
  0.00000000E+00  2.01433323E-04 -3.18586778E-04  0.00000000E+00 -1.27587579E-04
  0.00000000E+00  0.00000000E+00 -2.00705882E-04 -1.57855442E-04 -4.92986829E-04
  0.00000000E+00  0.00000000E+00 -6.74657775E-04 -9.32511219E-04 -6.61562396E-05
  0.00000000E+00  0.00000000E+00  2.10805855E-05  1.09927891E-04  0.00000000E+00
  3.15564455E-06  5.38540127E-05  0.00000000E+00  0.00000000E+00 -4.63541811E-05
  9.84369757E-06  0.00000000E+00 -1.39120292E-04  1.59178955E-04  0.00000000E+00
  0.00000000E+00 -3.45750640E-04 -3.69645718E-05  9.76666898E-01 -9.88801587E-03
  4.35436563E-02  3.52146773E-03 -9.71040944E-04 -4.40724173E-04  2.12031379E-03
  0.00000000E+00  5.22758700E-04 -2.53820210E-03  0.00000000E+00 -3.67204333E-05
  7.74876248E-04  0.00000000E+00  1.11199663E-04 -7.36531049E-05  0.00000000E+00
 -1.85073851E-04  0.00000000E+00  0.00000000E+00 -6.46010317E-05 -3.59684527E-05
  4.13684676E-04  0.00000000E+00  0.00000000E+00  8.70401296E-04  4.95713384E-04
 -2.15114656E-04  0.00000000E+00  0.00000000E+00 -1.46286024E-04 -3.50131214E-05
  0.00000000E+00 -6.79715797E-06  7.59336350E-05  0.00000000E+00  0.00000000E+00
 -3.55723782E-05  1.36826997E-05  0.00000000E+00 -8.75767899E-05  8.33794721E-05
  0.00000000E+00  0.00000000E+00 -1.64920456E-04  2.03571201E-04  3.74876171E-04
  1.98419003E-03  1.35647563E-03 -1.73121822E-05  5.04145790E-05  2.67304248E-04
  0.00000000E+00  3.87341571E-04  1.02457970E-03  0.00000000E+00 -1.24386447E-04
  2.29401692E-04  0.00000000E+00 -2.32578114E-05  0.00000000E+00  0.00000000E+00
  3.28492331E-05 -2.87389753E-05 -2.16603748E-04  0.00000000E+00  0.00000000E+00
 -3.50368728E-04  4.08636729E-04  9.76834748E-01 -9.18773577E-03  4.34652665E-02
  1.35481614E-04 -1.88556558E-03 -2.04580868E-03 -8.29455500E-04  0.00000000E+00
  2.08287407E-03  7.64749926E-04  0.00000000E+00 -3.97887700E-04  6.42915093E-04
  0.00000000E+00  2.19876421E-04 -2.98859828E-04  0.00000000E+00  3.08156673E-05
  0.00000000E+00  0.00000000E+00 -7.48406256E-05  6.37055722E-05  7.65689067E-04
  0.00000000E+00  0.00000000E+00 -2.10519267E-04  3.56964310E-04 -2.37849526E-04
  0.00000000E+00  0.00000000E+00  3.32991955E-04 -6.99414465E-07  0.00000000E+00
 -8.05509965E-05  2.11736537E-06  0.00000000E+00  0.00000000E+00  1.59990159E-05