title                                                                   
Freq      RMP2-FC                                                     Aug-CC-pVTZ         
Number of atoms                            I                5
Info1-9                                    I   N=           9
          33          24           0           0           0         100
           6           2           1
Full Title                                 C   N=           1
title       
Route                                      C   N=           4
#p freq mp2/aug-cc-pvtz density=current         
Charge                                     I                0
Multiplicity                               I                1
Number of electrons                        I               32
Number of alpha electrons                  I               16
Number of beta electrons                   I               16
Number of basis functions                  I              207
Number of independent functions            I              207
Number of point charges in /Mol/           I                0
Number of translation vectors              I                0
Atomic numbers                             I   N=           5
           1           8           8           7           8
Nuclear charges                            R   N=           5
  1.00000000E+00  8.00000000E+00  8.00000000E+00  7.00000000E+00  8.00000000E+00
Current cartesian coordinates              R   N=          15
  2.10104800E+00 -1.10654471E+00  0.00000000E+00  2.48645858E+00  6.89642074E-01
  0.00000000E+00 -6.98712616E-17  1.73209251E+00  0.00000000E+00 -1.87373165E+00
 -8.47142989E-02  0.00000000E+00 -1.10957439E+00 -2.20929149E+00  0.00000000E+00
Number of symbols in /Mol/                 I                0
Force Field                                I                0
Atom Types                                 C   N=           5
                                                            
Int Atom Types                             I   N=           5
           0           0           0           0           0
MM charges                                 R   N=           5
  0.00000000E+00  0.00000000E+00  0.00000000E+00  0.00000000E+00  0.00000000E+00
Integer atomic weights                     I   N=           5
           1          16          16          14          16
Real atomic weights                        R   N=           5
  1.00782504E+00  1.59949146E+01  1.59949146E+01  1.40030740E+01  1.59949146E+01
Atom fragment info                         I   N=           5
           0           0           0           0           0
Atom residue num                           I   N=           5
           0           0           0           0           0
Nuclear spins                              I   N=           5
           1           0           0           2           0
Nuclear ZEff                               R   N=           5
 -1.00000000E+00 -5.60000000E+00 -5.60000000E+00 -4.55000000E+00 -5.60000000E+00
Nuclear ZNuc                               R   N=           5
  1.00000000E+00  8.00000000E+00  8.00000000E+00  7.00000000E+00  8.00000000E+00
Nuclear QMom                               R   N=           5
  0.00000000E+00  0.00000000E+00  0.00000000E+00  2.04400000E+00  0.00000000E+00
Nuclear GFac                               R   N=           5
  2.79284600E+00  0.00000000E+00  0.00000000E+00  4.03761000E-01  0.00000000E+00
MicOpt                                     I   N=           5
          -1          -1          -1          -1          -1
Number of residues                         I                0
Number of secondary structures             I                0
SymInf integers                            I   N=          26
           1           2           1           1           1           1
           1          -1           0           0           0           0
           0           0           0           0           0           0
           0           0           0           0           0           0
           0           0
RotTr to input orientation                 R   N=          12
 -9.77745119E-01  0.00000000E+00  2.09796288E-01  2.09796288E-01  0.00000000E+00
  9.77745119E-01  0.00000000E+00  1.00000000E+00  0.00000000E+00  2.28643840E+00
  0.00000000E+00  6.41126618E-01
Number of contracted shells                I               65
Number of primitive shells                 I              119
Pure/Cartesian d shells                    I                0
Pure/Cartesian f shells                    I                0
Highest angular momentum                   I                3
Largest degree of contraction              I                7
Shell types                                I   N=          65
           0           0           0           0           1           1
           1          -2          -2           0           0           0
           0           0           1           1           1           1
          -2          -2          -2          -3          -3           0
           0           0           0           0           1           1
           1           1          -2          -2          -2          -3
          -3           0           0           0           0           0
           1           1           1           1          -2          -2
          -2          -3          -3           0           0           0
           0           0           1           1           1           1
          -2          -2          -2          -3          -3
Number of primitives per shell             I   N=          65
           3           1           1           1           1           1
           1           1           1           7           6           1
           1           1           3           1           1           1
           1           1           1           1           1           7
           6           1           1           1           3           1
           1           1           1           1           1           1
           1           7           6           1           1           1
           3           1           1           1           1           1
           1           1           1           7           6           1
           1           1           3           1           1           1
           1           1           1           1           1
Shell to atom map                          I   N=          65
           1           1           1           1           1           1
           1           1           1           2           2           2
           2           2           2           2           2           2
           2           2           2           2           2           3
           3           3           3           3           3           3
           3           3           3           3           3           3
           3           4           4           4           4           4
           4           4           4           4           4           4
           4           4           4           5           5           5
           5           5           5           5           5           5
           5           5           5           5           5
Primitive exponents                        R   N=         119
  3.38700000E+01  5.09500000E+00  1.15900000E+00  3.25800000E-01  1.02700000E-01
  2.52600000E-02  1.40700000E+00  3.88000000E-01  1.02000000E-01  1.05700000E+00
  2.47000000E-01  1.53300000E+04  2.29900000E+03  5.22400000E+02  1.47300000E+02
  4.75500000E+01  1.67600000E+01  6.20700000E+00  5.22400000E+02  1.47300000E+02
  4.75500000E+01  1.67600000E+01  6.20700000E+00  6.88200000E-01  1.75200000E+00
  2.38400000E-01  7.37600000E-02  3.44600000E+01  7.74900000E+00  2.28000000E+00
  7.15600000E-01  2.14000000E-01  5.97400000E-02  2.31400000E+00  6.45000000E-01
  2.14000000E-01  1.42800000E+00  5.00000000E-01  1.53300000E+04  2.29900000E+03
  5.22400000E+02  1.47300000E+02  4.75500000E+01  1.67600000E+01  6.20700000E+00
  5.22400000E+02  1.47300000E+02  4.75500000E+01  1.67600000E+01  6.20700000E+00
  6.88200000E-01  1.75200000E+00  2.38400000E-01  7.37600000E-02  3.44600000E+01
  7.74900000E+00  2.28000000E+00  7.15600000E-01  2.14000000E-01  5.97400000E-02
  2.31400000E+00  6.45000000E-01  2.14000000E-01  1.42800000E+00  5.00000000E-01
  1.14200000E+04  1.71200000E+03  3.89300000E+02  1.10000000E+02  3.55700000E+01
  1.25400000E+01  4.64400000E+00  3.89300000E+02  1.10000000E+02  3.55700000E+01
  1.25400000E+01  4.64400000E+00  5.11800000E-01  1.29300000E+00  1.78700000E-01
  5.76000000E-02  2.66300000E+01  5.94800000E+00  1.74200000E+00  5.55000000E-01
  1.72500000E-01  4.91000000E-02  1.65400000E+00  4.69000000E-01  1.51000000E-01
  1.09300000E+00  3.64000000E-01  1.53300000E+04  2.29900000E+03  5.22400000E+02
  1.47300000E+02  4.75500000E+01  1.67600000E+01  6.20700000E+00  5.22400000E+02
  1.47300000E+02  4.75500000E+01  1.67600000E+01  6.20700000E+00  6.88200000E-01
  1.75200000E+00  2.38400000E-01  7.37600000E-02  3.44600000E+01  7.74900000E+00
  2.28000000E+00  7.15600000E-01  2.14000000E-01  5.97400000E-02  2.31400000E+00
  6.45000000E-01  2.14000000E-01  1.42800000E+00  5.00000000E-01
Contraction coefficients                   R   N=         119
  2.54948632E-02  1.90362766E-01  8.52162022E-01  1.00000000E+00  1.00000000E+00
  1.00000000E+00  1.00000000E+00  1.00000000E+00  1.00000000E+00  1.00000000E+00
  1.00000000E+00  5.19808943E-04  4.02025621E-03  2.07128267E-02  8.10105536E-02
  2.35962985E-01  4.42653446E-01  3.57064423E-01 -4.42115008E-05 -1.22591041E-03
 -1.05517725E-02 -6.74452633E-02 -1.71198607E-01  1.07329856E+00  1.00000000E+00
  1.00000000E+00  1.00000000E+00  4.11634896E-02  2.57762836E-01  8.02419274E-01
  1.00000000E+00  1.00000000E+00  1.00000000E+00  1.00000000E+00  1.00000000E+00
  1.00000000E+00  1.00000000E+00  1.00000000E+00  5.19808943E-04  4.02025621E-03
  2.07128267E-02  8.10105536E-02  2.35962985E-01  4.42653446E-01  3.57064423E-01
 -4.42115008E-05 -1.22591041E-03 -1.05517725E-02 -6.74452633E-02 -1.71198607E-01
  1.07329856E+00  1.00000000E+00  1.00000000E+00  1.00000000E+00  4.11634896E-02
  2.57762836E-01  8.02419274E-01  1.00000000E+00  1.00000000E+00  1.00000000E+00
  1.00000000E+00  1.00000000E+00  1.00000000E+00  1.00000000E+00  1.00000000E+00
  5.34563860E-04  4.13435660E-03  2.12335358E-02  8.25006224E-02  2.38138871E-01
  4.42551547E-01  3.53757422E-01 -4.89867350E-05 -1.19527323E-03 -1.03490714E-02
 -6.48680190E-02 -1.71552477E-01  1.07289568E+00  1.00000000E+00  1.00000000E+00
  1.00000000E+00  3.98072123E-02  2.49002660E-01  8.10479727E-01  1.00000000E+00
  1.00000000E+00  1.00000000E+00  1.00000000E+00  1.00000000E+00  1.00000000E+00
  1.00000000E+00  1.00000000E+00  5.19808943E-04  4.02025621E-03  2.07128267E-02
  8.10105536E-02  2.35962985E-01  4.42653446E-01  3.57064423E-01 -4.42115008E-05
 -1.22591041E-03 -1.05517725E-02 -6.74452633E-02 -1.71198607E-01  1.07329856E+00
  1.00000000E+00  1.00000000E+00  1.00000000E+00  4.11634896E-02  2.57762836E-01
  8.02419274E-01  1.00000000E+00  1.00000000E+00  1.00000000E+00  1.00000000E+00
  1.00000000E+00  1.00000000E+00  1.00000000E+00  1.00000000E+00
Coordinates of each shell                  R   N=         195
  2.10104800E+00 -1.10654471E+00  0.00000000E+00  2.10104800E+00 -1.10654471E+00
  0.00000000E+00  2.10104800E+00 -1.10654471E+00  0.00000000E+00  2.10104800E+00
 -1.10654471E+00  0.00000000E+00  2.10104800E+00 -1.10654471E+00  0.00000000E+00
  2.10104800E+00 -1.10654471E+00  0.00000000E+00  2.10104800E+00 -1.10654471E+00
  0.00000000E+00  2.10104800E+00 -1.10654471E+00  0.00000000E+00  2.10104800E+00
 -1.10654471E+00  0.00000000E+00  2.48645858E+00  6.89642074E-01  0.00000000E+00
  2.48645858E+00  6.89642074E-01  0.00000000E+00  2.48645858E+00  6.89642074E-01
  0.00000000E+00  2.48645858E+00  6.89642074E-01  0.00000000E+00  2.48645858E+00
  6.89642074E-01  0.00000000E+00  2.48645858E+00  6.89642074E-01  0.00000000E+00
  2.48645858E+00  6.89642074E-01  0.00000000E+00  2.48645858E+00  6.89642074E-01
  0.00000000E+00  2.48645858E+00  6.89642074E-01  0.00000000E+00  2.48645858E+00
  6.89642074E-01  0.00000000E+00  2.48645858E+00  6.89642074E-01  0.00000000E+00
  2.48645858E+00  6.89642074E-01  0.00000000E+00  2.48645858E+00  6.89642074E-01
  0.00000000E+00  2.48645858E+00  6.89642074E-01  0.00000000E+00 -3.52336746E-18
  1.73209251E+00  0.00000000E+00 -3.52336746E-18  1.73209251E+00  0.00000000E+00
 -3.52336746E-18  1.73209251E+00  0.00000000E+00 -3.52336746E-18  1.73209251E+00
  0.00000000E+00 -3.52336746E-18  1.73209251E+00  0.00000000E+00 -3.52336746E-18
  1.73209251E+00  0.00000000E+00 -3.52336746E-18  1.73209251E+00  0.00000000E+00
 -3.52336746E-18  1.73209251E+00  0.00000000E+00 -3.52336746E-18  1.73209251E+00
  0.00000000E+00 -3.52336746E-18  1.73209251E+00  0.00000000E+00 -3.52336746E-18
  1.73209251E+00  0.00000000E+00 -3.52336746E-18  1.73209251E+00  0.00000000E+00
 -3.52336746E-18  1.73209251E+00  0.00000000E+00 -3.52336746E-18  1.73209251E+00
  0.00000000E+00 -1.87373165E+00 -8.47142989E-02  0.00000000E+00 -1.87373165E+00
 -8.47142989E-02  0.00000000E+00 -1.87373165E+00 -8.47142989E-02  0.00000000E+00
 -1.87373165E+00 -8.47142989E-02  0.00000000E+00 -1.87373165E+00 -8.47142989E-02
  0.00000000E+00 -1.87373165E+00 -8.47142989E-02  0.00000000E+00 -1.87373165E+00
 -8.47142989E-02  0.00000000E+00 -1.87373165E+00 -8.47142989E-02  0.00000000E+00
 -1.87373165E+00 -8.47142989E-02  0.00000000E+00 -1.87373165E+00 -8.47142989E-02
  0.00000000E+00 -1.87373165E+00 -8.47142989E-02  0.00000000E+00 -1.87373165E+00
 -8.47142989E-02  0.00000000E+00 -1.87373165E+00 -8.47142989E-02  0.00000000E+00
 -1.87373165E+00 -8.47142989E-02  0.00000000E+00 -1.10957439E+00 -2.20929149E+00
  0.00000000E+00 -1.10957439E+00 -2.20929149E+00  0.00000000E+00 -1.10957439E+00
 -2.20929149E+00  0.00000000E+00 -1.10957439E+00 -2.20929149E+00  0.00000000E+00
 -1.10957439E+00 -2.20929149E+00  0.00000000E+00 -1.10957439E+00 -2.20929149E+00
  0.00000000E+00 -1.10957439E+00 -2.20929149E+00  0.00000000E+00 -1.10957439E+00
 -2.20929149E+00  0.00000000E+00 -1.10957439E+00 -2.20929149E+00  0.00000000E+00
 -1.10957439E+00 -2.20929149E+00  0.00000000E+00 -1.10957439E+00 -2.20929149E+00
  0.00000000E+00 -1.10957439E+00 -2.20929149E+00  0.00000000E+00 -1.10957439E+00
 -2.20929149E+00  0.00000000E+00 -1.10957439E+00 -2.20929149E+00  0.00000000E+00
Num ILSW                                   I              100
ILSW                                       I   N=         100
           0           0           0           0           2           0
           0           0           0           0           0          -1
           5           0           0           0           2           0
           0           0           0           0           1           0
           1           0           0           0           0           0
           0           0      100000           0          -1           0
           0           0           0           0           0           0
           0           0           0           1           1           0
           0 -2000000000           1           0           0           0
           0           0           4          52           0           0
           0           0           0           0           0           0
           0           0           0           5           4           1
           0           0           0           0           0           0
           0           0           0           0           0           0
           0           0           0           0           0           0
           0           0           0           0           0           0
           0           0           0           0
Num RLSW                                   I               52
RLSW                                       R   N=          52
  1.00000000E+00  1.00000000E+00  1.00000000E+00  1.00000000E+00  1.00000000E+00
  0.00000000E+00  0.00000000E+00  1.00000000E+00  0.00000000E+00  0.00000000E+00
  0.00000000E+00  0.00000000E+00  1.00000000E+00  0.00000000E+00  0.00000000E+00
  0.00000000E+00  0.00000000E+00  1.00000000E+00  0.00000000E+00  0.00000000E+00
  0.00000000E+00  0.00000000E+00  1.00000000E+00  0.00000000E+00  0.00000000E+00
  0.00000000E+00  0.00000000E+00  1.00000000E+00  0.00000000E+00  0.00000000E+00
  0.00000000E+00  0.00000000E+00  1.00000000E+00  0.00000000E+00  0.00000000E+00
  0.00000000E+00  0.00000000E+00  0.00000000E+00  1.00000000E+00  1.00000000E+00
  0.00000000E+00  1.00000000E+00  0.00000000E+00  0.00000000E+00  0.00000000E+00
  0.00000000E+00  0.00000000E+00  0.00000000E+00  0.00000000E+00  0.00000000E+00
  0.00000000E+00  0.00000000E+00
MxBond                                     I                2
NBond                                      I   N=           5
           1           2           2           2           1
IBond                                      I   N=          10
           2           0           1           3           2           4
           3           5           4           0
RBond                                      R   N=          10
  1.00000000E+00  0.00000000E+00  1.00000000E+00  1.00000000E+00  1.00000000E+00
  1.00000000E+00  1.00000000E+00  2.00000000E+00  2.00000000E+00  0.00000000E+00
Virial Ratio                               R      2.002145654827661E+00
SCF Energy                                 R     -2.795070795462436E+02
MP2 Energy                                 R     -2.804550983900857E+02
Total Energy                               R     -2.804550983900857E+02
Post-SCF wavefunction norm                 R      1.583363541585540E+00
RMS Force                                  R      4.145226382979133E-03
RMS Density                                R      4.237416084117552E-09
NImag                                      I                1
Job Status                                 I                1
Nuclear derivative order                   I                2
External E-field                           R   N=          35
  0.00000000E+00  0.00000000E+00  0.00000000E+00  0.00000000E+00  0.00000000E+00
  0.00000000E+00  0.00000000E+00  0.00000000E+00  0.00000000E+00  0.00000000E+00
  0.00000000E+00  0.00000000E+00  0.00000000E+00  0.00000000E+00  0.00000000E+00
  0.00000000E+00  0.00000000E+00  0.00000000E+00  0.00000000E+00  0.00000000E+00
  0.00000000E+00  0.00000000E+00  0.00000000E+00  0.00000000E+00  0.00000000E+00
  0.00000000E+00  0.00000000E+00  0.00000000E+00  0.00000000E+00  0.00000000E+00
  0.00000000E+00  0.00000000E+00  0.00000000E+00  0.00000000E+00  0.00000000E+00
IOpCl                                      I                0
IROHF                                      I                0
Alpha Orbital Energies                     R   N=         207
 -2.07200036E+01 -2.06871179E+01 -2.06678183E+01 -1.58260313E+01 -1.64453311E+00
 -1.50630855E+00 -1.29622811E+00 -9.61178137E-01 -8.35316142E-01 -7.59089712E-01
 -7.40192755E-01 -6.40345097E-01 -6.19139007E-01 -6.18677131E-01 -5.04568193E-01
 -4.98074728E-01  3.51675937E-02  6.03122725E-02  9.50389213E-02  1.00416823E-01
  1.19615170E-01  1.22570017E-01  1.49553721E-01  1.52139514E-01  1.77303385E-01
  1.80278986E-01  1.89744406E-01  2.11176917E-01  2.16839420E-01  2.42095097E-01
  2.46315543E-01  2.69009119E-01  3.14311393E-01  3.17139669E-01  3.37834333E-01
  3.43778166E-01  3.46577801E-01  3.92586359E-01  4.50959639E-01  4.89731492E-01
  5.05204094E-01  5.18456999E-01  5.45818856E-01  5.61043784E-01  5.99678085E-01
  6.21195483E-01  6.38876883E-01  6.89555112E-01  7.16410678E-01  7.24604974E-01
  7.43411153E-01  7.63360531E-01  7.67088701E-01  7.95891505E-01  8.06601937E-01
  8.40909039E-01  8.43027158E-01  8.51408066E-01  8.85048419E-01  9.07037056E-01
  9.29498992E-01  9.48073460E-01  9.54590990E-01  1.01857851E+00  1.03272706E+00
  1.06279633E+00  1.06704778E+00  1.09609358E+00  1.14466169E+00  1.15709937E+00
  1.16934755E+00  1.22172419E+00  1.22715410E+00  1.24575315E+00  1.35487834E+00
  1.36364215E+00  1.37168607E+00  1.46800985E+00  1.49025697E+00  1.50456699E+00
  1.54477335E+00  1.59731744E+00  1.59876481E+00  1.60560858E+00  1.62869435E+00
  1.69527873E+00  1.74173426E+00  1.80171502E+00  1.82999050E+00  1.88816427E+00
  1.89700007E+00  1.92767019E+00  1.97888694E+00  1.99559362E+00  2.05257001E+00
  2.12480517E+00  2.13254991E+00  2.16721183E+00  2.18895905E+00  2.24334845E+00
  2.25816329E+00  2.29446205E+00  2.35183030E+00  2.36439153E+00  2.38861987E+00
  2.40279070E+00  2.43318541E+00  2.46735759E+00  2.48067866E+00  2.52907785E+00
  2.54009679E+00  2.54895622E+00  2.55913422E+00  2.61637970E+00  2.62820192E+00
  2.67293099E+00  2.67357923E+00  2.75429907E+00  2.80971823E+00  2.81464506E+00
  2.84158751E+00  2.91888298E+00  2.98548838E+00  3.04617367E+00  3.05091733E+00
  3.11596587E+00  3.11815352E+00  3.17584163E+00  3.21238990E+00  3.30747773E+00
  3.33440935E+00  3.36276968E+00  3.48025654E+00  3.67846263E+00  3.87036063E+00
  3.94354182E+00  4.19501296E+00  4.22600890E+00  4.22828731E+00  4.26857153E+00
  4.37037693E+00  4.50108195E+00  4.53290117E+00  4.55715547E+00  4.60488792E+00
  4.69348399E+00  4.82207174E+00  4.89962296E+00  4.91440629E+00  4.95279427E+00
  5.00222036E+00  5.00615709E+00  5.10869052E+00  5.14158429E+00  5.19750345E+00
  5.25956762E+00  5.27993923E+00  5.33024451E+00  5.34639203E+00  5.37018696E+00
  5.54841356E+00  5.64485866E+00  5.70611325E+00  5.88988040E+00  6.00005153E+00
  6.26517089E+00  6.29136127E+00  6.36031767E+00  6.37876004E+00  6.59999490E+00
  6.65835687E+00  6.66025206E+00  6.69054810E+00  6.72612737E+00  6.79829026E+00
  6.80505869E+00  6.85204181E+00  6.96778568E+00  7.03176625E+00  7.06596220E+00
  7.08976969E+00  7.14191862E+00  7.17489148E+00  7.17662422E+00  7.21717226E+00
  7.25168409E+00  7.25234626E+00  7.27017040E+00  7.34894954E+00  7.39488799E+00
  7.43614711E+00  7.44244085E+00  7.46893330E+00  7.56111442E+00  7.66393490E+00
  7.66846542E+00  7.80787354E+00  7.88947133E+00  7.95385070E+00  8.06543872E+00
  8.31584401E+00  8.51414210E+00  8.65707487E+00  1.36234746E+01  1.48142728E+01
  1.52501705E+01  1.57638907E+01
Alpha MO coefficients                      R   N=       42849
  6.61934872E-05 -1.75848648E-05 -1.17571435E-03  1.19609384E-05 -5.09877444E-05
  4.19549527E-05  0.00000000E+00 -1.07525061E-04 -2.78343649E-04  0.00000000E+00
 -4.56805061E-06 -3.49616177E-04  0.00000000E+00  4.24230565E-05  0.00000000E+00
  0.00000000E+00 -2.85148200E-05  1.38837470E-05  2.35419542E-04  0.00000000E+00
  0.00000000E+00 -5.65379425E-05 -2.29385977E-04  3.02701291E-03 -9.69203621E-05
 -1.00817790E-04  3.54683539E-03  2.51403879E-03  1.02678389E-04 -5.36876199E-05
  0.00000000E+00 -7.27585794E-04  2.91769502E-04  0.00000000E+00 -1.94184487E-03
  1.10875185E-03  0.00000000E+00 -5.40748685E-04  3.10095988E-05  0.00000000E+00
  2.11426195E-05  0.00000000E+00  0.00000000E+00 -8.86465635E-06  4.47373479E-05
 -4.44244684E-04  0.00000000E+00  0.00000000E+00  4.32891440E-04 -6.68965232E-04
 -3.66290775E-04  0.00000000E+00  0.00000000E+00  5.40795572E-04 -7.57680073E-04
  0.00000000E+00  7.43041185E-05 -5.33976128E-05  0.00000000E+00  0.00000000E+00
 -2.79277206E-05  1.07768872E-04  0.00000000E+00  2.07359567E-04 -4.80238451E-05
  0.00000000E+00  0.00000000E+00 -1.76009960E-04  3.01293825E-04  9.76903708E-01
 -9.17314823E-03  4.34082678E-02  4.97451744E-04 -2.21177479E-03  4.52653364E-04
 -2.14866090E-03  0.00000000E+00 -3.25253364E-04  2.25448430E-03  0.00000000E+00
 -2.31284487E-03 -4.80691487E-04  0.00000000E+00 -2.21999065E-04  1.00155769E-04
  0.00000000E+00  7.33856352E-06  0.00000000E+00  0.00000000E+00 -5.25307655E-06
  3.77941595E-05  8.28095726E-04  0.00000000E+00  0.00000000E+00 -4.76011952E-04
 -1.67244331E-04 -1.36471642E-04  0.00000000E+00  0.00000000E+00 -5.48735682E-04
  3.50552425E-04  0.00000000E+00 -5.92836776E-06 -7.92001148E-05  0.00000000E+00
  0.00000000E+00 -8.98302049E-06  4.83007175E-05  0.00000000E+00  9.15130558E-05
 -3.66817678E-07  0.00000000E+00  0.00000000E+00 -3.35709746E-04  3.82341354E-04
  1.04682253E-04  4.59485007E-04 -3.23398080E-04 -7.96368295E-04  3.52378464E-04
 -4.40944175E-05 -9.99326492E-05  0.00000000E+00  6.98475780E-04  1.11156613E-03
  0.00000000E+00 -7.60626053E-04 -6.75003465E-04  0.00000000E+00  1.92241538E-04
  2.10686886E-04  0.00000000E+00 -5.24482580E-05  0.00000000E+00  0.00000000E+00
  1.93175898E-05  9.31234178E-05 -4.16214648E-04  0.00000000E+00  0.00000000E+00
  3.99589481E-05  1.08010671E-03  2.64370946E-05  0.00000000E+00  0.00000000E+00
 -3.16924046E-04  2.38263836E-05  0.00000000E+00 -7.85656621E-05 -1.13591459E-04
  0.00000000E+00  0.00000000E+00 -9.65946972E-05  1.05697383E-04  0.00000000E+00
 -1.24138862E-04  4.73703167E-05  0.00000000E+00  0.00000000E+00  1.69060171E-05
  5.20023096E-04 -6.99416733E-04  4.48640237E-05 -6.98762642E-05  2.05665693E-04
 -1.76233437E-04 -2.86302940E-05 -4.15014410E-05  0.00000000E+00  1.67033342E-04
  2.54028013E-04  0.00000000E+00  5.55550375E-04  3.18162493E-04  0.00000000E+00
 -2.13851264E-04 -6.31177133E-05  0.00000000E+00 -1.29875066E-05  0.00000000E+00
  0.00000000E+00  3.21923254E-06  1.52558171E-05 -2.06846552E-06  0.00000000E+00
  0.00000000E+00 -1.63617501E-04  1.02397558E-05 -2.43228511E-05  0.00000000E+00
  0.00000000E+00 -1.62293508E-04 -3.44485979E-05  0.00000000E+00 -5.71169915E-06
 -9.06847921E-06  0.00000000E+00  0.00000000E+00 -2.17870172E-05  9.37348886E-06
  0.00000000E+00  3.94257842E-05  6.11131322E-05  0.00000000E+00  0.00000000E+00
  1.58669469E-04 -1.03253899E-04  4.05827512E-05  6.78904840E-05 -1.33189711E-04
 -3.05168868E-05  1.83003381E-05  9.09554230E-06  0.00000000E+00  2.39858048E-04
  6.71073432E-05  0.00000000E+00  1.24144262E-04  2.26063876E-05  0.00000000E+00
  1.39019863E-05  0.00000000E+00  0.00000000E+00 -1.27373432E-05  1.53160383E-05
  2.35641791E-05  0.00000000E+00  0.00000000E+00 -1.02052461E-04  5.95775727E-05
 -2.50380715E-04  2.36051411E-05 -1.48771424E-05 -5.70474177E-04  1.68186473E-04
  7.42583539E-06  1.35832844E-05  0.00000000E+00 -9.85909654E-07 -4.01871277E-05
  0.00000000E+00  2.00519964E-04  1.25257637E-04  0.00000000E+00 -4.67232631E-05
  4.51331402E-05  0.00000000E+00 -1.37696926E-06  0.00000000E+00  0.00000000E+00
 -8.22707760E-06 -1.18439053E-05  2.09522348E-05  0.00000000E+00  0.00000000E+00
  4.95894967E-05  1.09888996E-04  6.14170695E-05  0.00000000E+00  0.00000000E+00
 -3.34354714E-05 -8.10484552E-05  0.00000000E+00  7.86983377E-06  1.03425541E-05
  0.00000000E+00  0.00000000E+00 -8.77161351E-07 -2.48074569E-05  0.00000000E+00
 -1.43953841E-05 -3.47319671E-05  0.00000000E+00  0.00000000E+00 -3.12871974E-06
 -1.94660228E-05  7.27046977E-04  2.18308793E-05 -1.92035280E-05  3.02791259E-04
 -3.94583298E-04  1.65130297E-05  2.72018677E-05  0.00000000E+00 -6.61089515E-05
 -1.53020862E-04  0.00000000E+00  1.70174608E-04 -2.07090757E-04  0.00000000E+00
 -1.54968634E-04  1.43393360E-04  0.00000000E+00 -3.98580916E-06  0.00000000E+00
  0.00000000E+00 -2.95221623E-05 -9.80684873E-06 -5.17611002E-05  0.00000000E+00
  0.00000000E+00  8.01575535E-05  1.21559170E-04 -6.56538160E-05  0.00000000E+00
  0.00000000E+00  4.13089297E-05  2.09604698E-05  0.00000000E+00  3.07026882E-06
  3.28168181E-06  0.00000000E+00  0.00000000E+00 -7.77474897E-06 -2.38073831E-06
  0.00000000E+00  3.13642227E-06 -2.49057249E-05  0.00000000E+00  0.00000000E+00
  9.58496542E-05 -1.54152642E-04  2.37306786E-04  1.35894009E-03 -1.47377944E-04
 -6.69789048E-04  9.08984732E-04  6.32687426E-05 -7.09669543E-05  0.00000000E+00
  5.71866373E-04 -2.08471868E-03  0.00000000E+00  1.19299916E-04  5.00723926E-04
  0.00000000E+00  1.85999767E-04 -3.06835584E-04  0.00000000E+00 -1.27764845E-04
  0.00000000E+00  0.00000000E+00 -2.04105351E-04 -1.58547670E-04 -4.61481456E-04
  0.00000000E+00  0.00000000E+00 -6.04878728E-04 -9.19687519E-04 -4.33469685E-05
  0.00000000E+00  0.00000000E+00  6.00843655E-05  1.18146287E-04  0.00000000E+00
  8.48975504E-06  3.69316546E-05  0.00000000E+00  0.00000000E+00 -2.46280018E-05
 -3.82422062E-06  0.00000000E+00 -1.35548756E-04  1.58328028E-04  0.00000000E+00
  0.00000000E+00 -3.15299248E-04 -3.37764243E-05  9.76646054E-01 -9.88762484E-03
  4.35753550E-02  3.68454566E-03 -8.97707951E-04 -4.51320566E-04  2.13191287E-03
  0.00000000E+00  5.14666564E-04 -2.50725063E-03  0.00000000E+00 -6.66608311E-05
  8.12797999E-04  0.00000000E+00  1.04909036E-04 -6.50330095E-05  0.00000000E+00
 -1.94312308E-04  0.00000000E+00  0.00000000E+00 -7.41495635E-05 -4.36063087E-05
  4.08944831E-04  0.00000000E+00  0.00000000E+00  8.59728122E-04  4.84924584E-04
 -2.05799122E-04  0.00000000E+00  0.00000000E+00 -1.38914518E-04 -3.49691618E-05
  0.00000000E+00 -4.69579969E-06  7.04338426E-05  0.00000000E+00  0.00000000E+00
 -2.92416632E-05  1.04985723E-05  0.00000000E+00 -8.95511772E-05  9.16954333E-05
  0.00000000E+00  0.00000000E+00 -1.66437823E-04  2.05404958E-04  4.05410584E-04
  1.71453690E-03  1.15313309E-03 -2.32878832E-05  4.22057581E-05  2.37859108E-04
  0.00000000E+00  3.48048692E-04  8.95334625E-04  0.00000000E+00 -1.36788269E-04
  1.70409577E-04  0.00000000E+00  2.14043386E-06  0.00000000E+00  0.00000000E+00
  7.21005776E-05 -5.14367881E-05 -2.10100956E-04  0.00000000E+00  0.00000000E+00
 -3.41715530E-04  3.96070328E-04  9.76828652E-01 -9.15444079E-03  4.34774806E-02
  3.41016841E-04 -1.70689615E-03 -2.04378868E-03 -8.39060469E-04  0.00000000E+00
  2.06498824E-03  6.92360406E-04  0.00000000E+00 -3.86614072E-04  4.55801844E-04
  0.00000000E+00  2.02229264E-04 -3.18029599E-04  0.00000000E+00  2.47215804E-05
  0.00000000E+00  0.00000000E+00 -8.22531818E-05  6.78322965E-05  7.46650724E-04
  0.00000000E+00  0.00000000E+00 -2.45048100E-04  3.64797932E-04 -2.50255119E-04
  0.00000000E+00  0.00000000E+00  2.96260713E-04  1.91599609E-05  0.00000000E+00
 -7.90205330E-05  8.84131348E-06  0.00000000E+00  0.00000000E+00  2.24605492E-05