title                                                                   
Freq      RMP2-FC                                                     Aug-CC-pVTZ         
Number of atoms                            I                5
Info1-9                                    I   N=           9
          33          24           0           0           0         100
           6           2           1
Full Title                                 C   N=           1
title       
Route                                      C   N=           4
#p freq mp2/aug-cc-pvtz density=current         
Charge                                     I                0
Multiplicity                               I                1
Number of electrons                        I               32
Number of alpha electrons                  I               16
Number of beta electrons                   I               16
Number of basis functions                  I              207
Number of independent functions            I              207
Number of point charges in /Mol/           I                0
Number of translation vectors              I                0
Atomic numbers                             I   N=           5
           1           8           8           7           8
Nuclear charges                            R   N=           5
  1.00000000E+00  8.00000000E+00  8.00000000E+00  7.00000000E+00  8.00000000E+00
Current cartesian coordinates              R   N=          15
  2.07468202E+00 -1.13917132E+00  4.93038066E-32  2.47872345E+00  6.78557221E-01
 -4.93038066E-32  8.12974142E-17  1.73926889E+00 -3.08148791E-32 -1.87010639E+00
 -8.12693169E-02  0.00000000E+00 -1.10171561E+00 -2.20431905E+00  6.16297582E-32
Number of symbols in /Mol/                 I                0
Force Field                                I                0
Atom Types                                 C   N=           5
                                                            
Int Atom Types                             I   N=           5
           0           0           0           0           0
MM charges                                 R   N=           5
  0.00000000E+00  0.00000000E+00  0.00000000E+00  0.00000000E+00  0.00000000E+00
Integer atomic weights                     I   N=           5
           1          16          16          14          16
Real atomic weights                        R   N=           5
  1.00782504E+00  1.59949146E+01  1.59949146E+01  1.40030740E+01  1.59949146E+01
Atom fragment info                         I   N=           5
           0           0           0           0           0
Atom residue num                           I   N=           5
           0           0           0           0           0
Nuclear spins                              I   N=           5
           1           0           0           2           0
Nuclear ZEff                               R   N=           5
 -1.00000000E+00 -5.60000000E+00 -5.60000000E+00 -4.55000000E+00 -5.60000000E+00
Nuclear ZNuc                               R   N=           5
  1.00000000E+00  8.00000000E+00  8.00000000E+00  7.00000000E+00  8.00000000E+00
Nuclear QMom                               R   N=           5
  0.00000000E+00  0.00000000E+00  0.00000000E+00  2.04400000E+00  0.00000000E+00
Nuclear GFac                               R   N=           5
  2.79284600E+00  0.00000000E+00  0.00000000E+00  4.03761000E-01  0.00000000E+00
MicOpt                                     I   N=           5
          -1          -1          -1          -1          -1
Number of residues                         I                0
Number of secondary structures             I                0
SymInf integers                            I   N=          26
           1           2           1           1           1           1
           1          -1           0           0           0           0
           0           0           0           0           0           0
           0           0           0           0           0           0
           0           0
RotTr to input orientation                 R   N=          12
 -9.76175487E-01  1.25047382E-16  2.16982530E-01  2.16982530E-01 -2.77953070E-17
  9.76175487E-01  1.28099285E-16  1.00000000E+00  0.00000000E+00  2.27243401E+00
  0.00000000E+00  6.61861367E-01
Number of contracted shells                I               65
Number of primitive shells                 I              119
Pure/Cartesian d shells                    I                0
Pure/Cartesian f shells                    I                0
Highest angular momentum                   I                3
Largest degree of contraction              I                7
Shell types                                I   N=          65
           0           0           0           0           1           1
           1          -2          -2           0           0           0
           0           0           1           1           1           1
          -2          -2          -2          -3          -3           0
           0           0           0           0           1           1
           1           1          -2          -2          -2          -3
          -3           0           0           0           0           0
           1           1           1           1          -2          -2
          -2          -3          -3           0           0           0
           0           0           1           1           1           1
          -2          -2          -2          -3          -3
Number of primitives per shell             I   N=          65
           3           1           1           1           1           1
           1           1           1           7           6           1
           1           1           3           1           1           1
           1           1           1           1           1           7
           6           1           1           1           3           1
           1           1           1           1           1           1
           1           7           6           1           1           1
           3           1           1           1           1           1
           1           1           1           7           6           1
           1           1           3           1           1           1
           1           1           1           1           1
Shell to atom map                          I   N=          65
           1           1           1           1           1           1
           1           1           1           2           2           2
           2           2           2           2           2           2
           2           2           2           2           2           3
           3           3           3           3           3           3
           3           3           3           3           3           3
           3           4           4           4           4           4
           4           4           4           4           4           4
           4           4           4           5           5           5
           5           5           5           5           5           5
           5           5           5           5           5
Primitive exponents                        R   N=         119
  3.38700000E+01  5.09500000E+00  1.15900000E+00  3.25800000E-01  1.02700000E-01
  2.52600000E-02  1.40700000E+00  3.88000000E-01  1.02000000E-01  1.05700000E+00
  2.47000000E-01  1.53300000E+04  2.29900000E+03  5.22400000E+02  1.47300000E+02
  4.75500000E+01  1.67600000E+01  6.20700000E+00  5.22400000E+02  1.47300000E+02
  4.75500000E+01  1.67600000E+01  6.20700000E+00  6.88200000E-01  1.75200000E+00
  2.38400000E-01  7.37600000E-02  3.44600000E+01  7.74900000E+00  2.28000000E+00
  7.15600000E-01  2.14000000E-01  5.97400000E-02  2.31400000E+00  6.45000000E-01
  2.14000000E-01  1.42800000E+00  5.00000000E-01  1.53300000E+04  2.29900000E+03
  5.22400000E+02  1.47300000E+02  4.75500000E+01  1.67600000E+01  6.20700000E+00
  5.22400000E+02  1.47300000E+02  4.75500000E+01  1.67600000E+01  6.20700000E+00
  6.88200000E-01  1.75200000E+00  2.38400000E-01  7.37600000E-02  3.44600000E+01
  7.74900000E+00  2.28000000E+00  7.15600000E-01  2.14000000E-01  5.97400000E-02
  2.31400000E+00  6.45000000E-01  2.14000000E-01  1.42800000E+00  5.00000000E-01
  1.14200000E+04  1.71200000E+03  3.89300000E+02  1.10000000E+02  3.55700000E+01
  1.25400000E+01  4.64400000E+00  3.89300000E+02  1.10000000E+02  3.55700000E+01
  1.25400000E+01  4.64400000E+00  5.11800000E-01  1.29300000E+00  1.78700000E-01
  5.76000000E-02  2.66300000E+01  5.94800000E+00  1.74200000E+00  5.55000000E-01
  1.72500000E-01  4.91000000E-02  1.65400000E+00  4.69000000E-01  1.51000000E-01
  1.09300000E+00  3.64000000E-01  1.53300000E+04  2.29900000E+03  5.22400000E+02
  1.47300000E+02  4.75500000E+01  1.67600000E+01  6.20700000E+00  5.22400000E+02
  1.47300000E+02  4.75500000E+01  1.67600000E+01  6.20700000E+00  6.88200000E-01
  1.75200000E+00  2.38400000E-01  7.37600000E-02  3.44600000E+01  7.74900000E+00
  2.28000000E+00  7.15600000E-01  2.14000000E-01  5.97400000E-02  2.31400000E+00
  6.45000000E-01  2.14000000E-01  1.42800000E+00  5.00000000E-01
Contraction coefficients                   R   N=         119
  2.54948632E-02  1.90362766E-01  8.52162022E-01  1.00000000E+00  1.00000000E+00
  1.00000000E+00  1.00000000E+00  1.00000000E+00  1.00000000E+00  1.00000000E+00
  1.00000000E+00  5.19808943E-04  4.02025621E-03  2.07128267E-02  8.10105536E-02
  2.35962985E-01  4.42653446E-01  3.57064423E-01 -4.42115008E-05 -1.22591041E-03
 -1.05517725E-02 -6.74452633E-02 -1.71198607E-01  1.07329856E+00  1.00000000E+00
  1.00000000E+00  1.00000000E+00  4.11634896E-02  2.57762836E-01  8.02419274E-01
  1.00000000E+00  1.00000000E+00  1.00000000E+00  1.00000000E+00  1.00000000E+00
  1.00000000E+00  1.00000000E+00  1.00000000E+00  5.19808943E-04  4.02025621E-03
  2.07128267E-02  8.10105536E-02  2.35962985E-01  4.42653446E-01  3.57064423E-01
 -4.42115008E-05 -1.22591041E-03 -1.05517725E-02 -6.74452633E-02 -1.71198607E-01
  1.07329856E+00  1.00000000E+00  1.00000000E+00  1.00000000E+00  4.11634896E-02
  2.57762836E-01  8.02419274E-01  1.00000000E+00  1.00000000E+00  1.00000000E+00
  1.00000000E+00  1.00000000E+00  1.00000000E+00  1.00000000E+00  1.00000000E+00
  5.34563860E-04  4.13435660E-03  2.12335358E-02  8.25006224E-02  2.38138871E-01
  4.42551547E-01  3.53757422E-01 -4.89867350E-05 -1.19527323E-03 -1.03490714E-02
 -6.48680190E-02 -1.71552477E-01  1.07289568E+00  1.00000000E+00  1.00000000E+00
  1.00000000E+00  3.98072123E-02  2.49002660E-01  8.10479727E-01  1.00000000E+00
  1.00000000E+00  1.00000000E+00  1.00000000E+00  1.00000000E+00  1.00000000E+00
  1.00000000E+00  1.00000000E+00  5.19808943E-04  4.02025621E-03  2.07128267E-02
  8.10105536E-02  2.35962985E-01  4.42653446E-01  3.57064423E-01 -4.42115008E-05
 -1.22591041E-03 -1.05517725E-02 -6.74452633E-02 -1.71198607E-01  1.07329856E+00
  1.00000000E+00  1.00000000E+00  1.00000000E+00  4.11634896E-02  2.57762836E-01
  8.02419274E-01  1.00000000E+00  1.00000000E+00  1.00000000E+00  1.00000000E+00
  1.00000000E+00  1.00000000E+00  1.00000000E+00  1.00000000E+00
Coordinates of each shell                  R   N=         195
  2.07468202E+00 -1.13917132E+00  5.78718418E-33  2.07468202E+00 -1.13917132E+00
  5.78718418E-33  2.07468202E+00 -1.13917132E+00  5.78718418E-33  2.07468202E+00
 -1.13917132E+00  5.78718418E-33  2.07468202E+00 -1.13917132E+00  5.78718418E-33
  2.07468202E+00 -1.13917132E+00  5.78718418E-33  2.07468202E+00 -1.13917132E+00
  5.78718418E-33  2.07468202E+00 -1.13917132E+00  5.78718418E-33  2.07468202E+00
 -1.13917132E+00  5.78718418E-33  2.47872345E+00  6.78557221E-01 -1.04945778E-32
  2.47872345E+00  6.78557221E-01 -1.04945778E-32  2.47872345E+00  6.78557221E-01
 -1.04945778E-32  2.47872345E+00  6.78557221E-01 -1.04945778E-32  2.47872345E+00
  6.78557221E-01 -1.04945778E-32  2.47872345E+00  6.78557221E-01 -1.04945778E-32
  2.47872345E+00  6.78557221E-01 -1.04945778E-32  2.47872345E+00  6.78557221E-01
 -1.04945778E-32  2.47872345E+00  6.78557221E-01 -1.04945778E-32  2.47872345E+00
  6.78557221E-01 -1.04945778E-32  2.47872345E+00  6.78557221E-01 -1.04945778E-32
  2.47872345E+00  6.78557221E-01 -1.04945778E-32  2.47872345E+00  6.78557221E-01
 -1.04945778E-32  2.47872345E+00  6.78557221E-01 -1.04945778E-32 -2.19026603E-17
  1.73926889E+00 -1.48455024E-32 -2.19026603E-17  1.73926889E+00 -1.48455024E-32
 -2.19026603E-17  1.73926889E+00 -1.48455024E-32 -2.19026603E-17  1.73926889E+00
 -1.48455024E-32 -2.19026603E-17  1.73926889E+00 -1.48455024E-32 -2.19026603E-17
  1.73926889E+00 -1.48455024E-32 -2.19026603E-17  1.73926889E+00 -1.48455024E-32
 -2.19026603E-17  1.73926889E+00 -1.48455024E-32 -2.19026603E-17  1.73926889E+00
 -1.48455024E-32 -2.19026603E-17  1.73926889E+00 -1.48455024E-32 -2.19026603E-17
  1.73926889E+00 -1.48455024E-32 -2.19026603E-17  1.73926889E+00 -1.48455024E-32
 -2.19026603E-17  1.73926889E+00 -1.48455024E-32 -2.19026603E-17  1.73926889E+00
 -1.48455024E-32 -1.87010639E+00 -8.12693169E-02  4.24173626E-33 -1.87010639E+00
 -8.12693169E-02  4.24173626E-33 -1.87010639E+00 -8.12693169E-02  4.24173626E-33
 -1.87010639E+00 -8.12693169E-02  4.24173626E-33 -1.87010639E+00 -8.12693169E-02
  4.24173626E-33 -1.87010639E+00 -8.12693169E-02  4.24173626E-33 -1.87010639E+00
 -8.12693169E-02  4.24173626E-33 -1.87010639E+00 -8.12693169E-02  4.24173626E-33
 -1.87010639E+00 -8.12693169E-02  4.24173626E-33 -1.87010639E+00 -8.12693169E-02
  4.24173626E-33 -1.87010639E+00 -8.12693169E-02  4.24173626E-33 -1.87010639E+00
 -8.12693169E-02  4.24173626E-33 -1.87010639E+00 -8.12693169E-02  4.24173626E-33
 -1.87010639E+00 -8.12693169E-02  4.24173626E-33 -1.10171561E+00 -2.20431905E+00
  2.09051630E-32 -1.10171561E+00 -2.20431905E+00  2.09051630E-32 -1.10171561E+00
 -2.20431905E+00  2.09051630E-32 -1.10171561E+00 -2.20431905E+00  2.09051630E-32
 -1.10171561E+00 -2.20431905E+00  2.09051630E-32 -1.10171561E+00 -2.20431905E+00
  2.09051630E-32 -1.10171561E+00 -2.20431905E+00  2.09051630E-32 -1.10171561E+00
 -2.20431905E+00  2.09051630E-32 -1.10171561E+00 -2.20431905E+00  2.09051630E-32
 -1.10171561E+00 -2.20431905E+00  2.09051630E-32 -1.10171561E+00 -2.20431905E+00
  2.09051630E-32 -1.10171561E+00 -2.20431905E+00  2.09051630E-32 -1.10171561E+00
 -2.20431905E+00  2.09051630E-32 -1.10171561E+00 -2.20431905E+00  2.09051630E-32
Num ILSW                                   I              100
ILSW                                       I   N=         100
           0           0           0           0           2           0
           0           0           0           0           0          -1
           5           0           0           0           2           0
           0           0           0           0           1           0
           1           0           0           0           0           0
           0           0      100000           0          -1           0
           0           0           0           0           0           0
           0           0           0           1           1           0
           0 -2000000000           1           0           0           0
           0           0           4          52           0           0
           0           0           0           0           0           0
           0           0           0           5           4           1
           0           0           0           0           0           0
           0           0           0           0           0           0
           0           0           0           0           0           0
           0           0           0           0           0           0
           0           0           0           0
Num RLSW                                   I               52
RLSW                                       R   N=          52
  1.00000000E+00  1.00000000E+00  1.00000000E+00  1.00000000E+00  1.00000000E+00
  0.00000000E+00  0.00000000E+00  1.00000000E+00  0.00000000E+00  0.00000000E+00
  0.00000000E+00  0.00000000E+00  1.00000000E+00  0.00000000E+00  0.00000000E+00
  0.00000000E+00  0.00000000E+00  1.00000000E+00  0.00000000E+00  0.00000000E+00
  0.00000000E+00  0.00000000E+00  1.00000000E+00  0.00000000E+00  0.00000000E+00
  0.00000000E+00  0.00000000E+00  1.00000000E+00  0.00000000E+00  0.00000000E+00
  0.00000000E+00  0.00000000E+00  1.00000000E+00  0.00000000E+00  0.00000000E+00
  0.00000000E+00  0.00000000E+00  0.00000000E+00  1.00000000E+00  1.00000000E+00
  0.00000000E+00  1.00000000E+00  0.00000000E+00  0.00000000E+00  0.00000000E+00
  0.00000000E+00  0.00000000E+00  0.00000000E+00  0.00000000E+00  0.00000000E+00
  0.00000000E+00  0.00000000E+00
MxBond                                     I                2
NBond                                      I   N=           5
           1           2           2           2           1
IBond                                      I   N=          10
           2           0           1           3           2           4
           3           5           4           0
RBond                                      R   N=          10
  1.00000000E+00  0.00000000E+00  1.00000000E+00  1.00000000E+00  1.00000000E+00
  1.00000000E+00  1.00000000E+00  2.00000000E+00  2.00000000E+00  0.00000000E+00
Virial Ratio                               R      2.002213125863256E+00
SCF Energy                                 R     -2.795062890049176E+02
MP2 Energy                                 R     -2.804552146905166E+02
Total Energy                               R     -2.804552146905166E+02
Post-SCF wavefunction norm                 R      1.583715726504354E+00
RMS Force                                  R      1.037167878371558E-03
RMS Density                                R      4.544337599846843E-09
NImag                                      I                0
Job Status                                 I                1
Nuclear derivative order                   I                2
External E-field                           R   N=          35
  0.00000000E+00  0.00000000E+00  0.00000000E+00  0.00000000E+00  0.00000000E+00
  0.00000000E+00  0.00000000E+00  0.00000000E+00  0.00000000E+00  0.00000000E+00
  0.00000000E+00  0.00000000E+00  0.00000000E+00  0.00000000E+00  0.00000000E+00
  0.00000000E+00  0.00000000E+00  0.00000000E+00  0.00000000E+00  0.00000000E+00
  0.00000000E+00  0.00000000E+00  0.00000000E+00  0.00000000E+00  0.00000000E+00
  0.00000000E+00  0.00000000E+00  0.00000000E+00  0.00000000E+00  0.00000000E+00
  0.00000000E+00  0.00000000E+00  0.00000000E+00  0.00000000E+00  0.00000000E+00
IOpCl                                      I                0
IROHF                                      I                0
Alpha Orbital Energies                     R   N=         207
 -2.07204480E+01 -2.06875766E+01 -2.06675403E+01 -1.58260188E+01 -1.64505996E+00
 -1.50507981E+00 -1.29374989E+00 -9.60441512E-01 -8.35787219E-01 -7.59202277E-01
 -7.40394354E-01 -6.36652441E-01 -6.19168606E-01 -6.18194138E-01 -5.05062237E-01
 -4.97674121E-01  3.51743243E-02  6.00098934E-02  9.50822294E-02  1.00196805E-01
  1.19708538E-01  1.22666066E-01  1.49547698E-01  1.52348471E-01  1.77475704E-01
  1.80194472E-01  1.89714038E-01  2.10994834E-01  2.16711530E-01  2.43193858E-01
  2.46290262E-01  2.69078041E-01  3.13480701E-01  3.17544033E-01  3.38110069E-01
  3.43119084E-01  3.46549854E-01  3.93177332E-01  4.49864532E-01  4.89023507E-01
  5.05231199E-01  5.18090998E-01  5.45126917E-01  5.60973307E-01  5.98564239E-01
  6.20101486E-01  6.38907350E-01  6.89970005E-01  7.16837793E-01  7.23876381E-01
  7.43863422E-01  7.64737684E-01  7.67622511E-01  7.95801797E-01  8.07268094E-01
  8.39047062E-01  8.42892185E-01  8.51910333E-01  8.85323228E-01  9.08252719E-01
  9.31546644E-01  9.47708020E-01  9.54498113E-01  1.01826102E+00  1.03331718E+00
  1.06615636E+00  1.06752472E+00  1.09668837E+00  1.14619758E+00  1.15643988E+00
  1.16964687E+00  1.22263403E+00  1.22819709E+00  1.24554535E+00  1.35640250E+00
  1.35758359E+00  1.37067196E+00  1.46893363E+00  1.48544683E+00  1.50413749E+00
  1.54373915E+00  1.59703760E+00  1.59867581E+00  1.60580144E+00  1.63058831E+00
  1.69577375E+00  1.74090744E+00  1.80050199E+00  1.82917326E+00  1.88817862E+00
  1.89768676E+00  1.93075138E+00  1.97972089E+00  1.99089272E+00  2.05243060E+00
  2.12251337E+00  2.13164487E+00  2.16647598E+00  2.18961681E+00  2.24449241E+00
  2.26080292E+00  2.29369315E+00  2.35507272E+00  2.36890933E+00  2.38554662E+00
  2.40368594E+00  2.43496162E+00  2.47008385E+00  2.48098955E+00  2.53081559E+00
  2.53965172E+00  2.55073636E+00  2.55958956E+00  2.61763510E+00  2.63149314E+00
  2.67416557E+00  2.67655676E+00  2.75506669E+00  2.80976366E+00  2.82041026E+00
  2.83961673E+00  2.92056820E+00  2.98574217E+00  3.04770958E+00  3.05350347E+00
  3.11362803E+00  3.11889047E+00  3.18005710E+00  3.21401856E+00  3.30899491E+00
  3.33221745E+00  3.35852524E+00  3.48041397E+00  3.67574609E+00  3.87009515E+00
  3.93628747E+00  4.18762923E+00  4.22611425E+00  4.22794849E+00  4.27236049E+00
  4.37204675E+00  4.49858615E+00  4.54114770E+00  4.55570948E+00  4.59990557E+00
  4.69138221E+00  4.80882501E+00  4.89734818E+00  4.91473910E+00  4.94248328E+00
  4.99907808E+00  5.00503271E+00  5.10641273E+00  5.13568170E+00  5.17829266E+00
  5.25208305E+00  5.25874383E+00  5.31862630E+00  5.35081067E+00  5.36676438E+00
  5.54483266E+00  5.64456734E+00  5.70735148E+00  5.89039331E+00  5.99613733E+00
  6.26371582E+00  6.29564034E+00  6.36105940E+00  6.37629678E+00  6.59907122E+00
  6.66031030E+00  6.66352740E+00  6.69282365E+00  6.72519538E+00  6.79553883E+00
  6.80447588E+00  6.85337911E+00  6.96827314E+00  7.02043328E+00  7.06633742E+00
  7.07970734E+00  7.13953499E+00  7.17503814E+00  7.18356773E+00  7.20440155E+00
  7.24647335E+00  7.24760282E+00  7.27215889E+00  7.35128660E+00  7.39690319E+00
  7.42969416E+00  7.44190515E+00  7.46311105E+00  7.56221764E+00  7.66276372E+00
  7.67366141E+00  7.79423050E+00  7.88503200E+00  7.95584272E+00  8.07476191E+00
  8.31020165E+00  8.50337374E+00  8.65103757E+00  1.36261541E+01  1.47507578E+01
  1.51184233E+01  1.57882469E+01
Alpha MO coefficients                      R   N=       42849
  6.34603250E-05 -1.95992043E-06 -1.11047945E-03  1.14439073E-05 -5.10465971E-05
  4.15631771E-05  0.00000000E+00 -9.24624095E-05 -2.80272887E-04  0.00000000E+00
 -1.26474472E-05 -3.52410366E-04  0.00000000E+00  4.14554142E-05  0.00000000E+00
  0.00000000E+00 -2.42185244E-05  1.28375715E-05  2.30801011E-04  0.00000000E+00
  0.00000000E+00 -4.07564684E-05 -2.13084051E-04  2.99462551E-03 -9.54059949E-05
 -1.01700343E-04  3.51384322E-03  2.47314706E-03  1.01515409E-04 -5.38709958E-05
  0.00000000E+00 -7.21261130E-04  2.90539728E-04  0.00000000E+00 -1.94601649E-03
  1.14611413E-03  0.00000000E+00 -5.33939570E-04  3.53049596E-05  0.00000000E+00
  2.04781039E-05  0.00000000E+00  0.00000000E+00 -8.21561565E-06  4.43278427E-05
 -4.41537598E-04  0.00000000E+00  0.00000000E+00  4.16256020E-04 -6.67855447E-04
 -3.61528022E-04  0.00000000E+00  0.00000000E+00  5.27451691E-04 -7.57138498E-04
  0.00000000E+00  7.32942841E-05 -5.27408634E-05  0.00000000E+00  0.00000000E+00
 -2.55770653E-05  1.08946163E-04  0.00000000E+00  2.08388781E-04 -5.30860835E-05
  0.00000000E+00  0.00000000E+00 -1.60273794E-04  3.02849776E-04  9.76905197E-01
 -9.17729711E-03  4.34033462E-02  5.09560165E-04 -2.22189610E-03  4.41689445E-04
 -2.15102211E-03  0.00000000E+00 -3.13584293E-04  2.26042860E-03  0.00000000E+00
 -2.29075365E-03 -4.98654782E-04  0.00000000E+00 -2.11916109E-04  1.02673060E-04
  0.00000000E+00  7.95382896E-06  0.00000000E+00  0.00000000E+00 -5.83268375E-06
  3.70593440E-05  8.24543596E-04  0.00000000E+00  0.00000000E+00 -4.65154571E-04
 -1.64425730E-04 -1.39387088E-04  0.00000000E+00  0.00000000E+00 -5.65806015E-04
  3.53067845E-04  0.00000000E+00 -6.44038758E-06 -7.97808106E-05  0.00000000E+00
  0.00000000E+00 -8.65089901E-06  4.80408160E-05  0.00000000E+00  9.07483517E-05
  1.40467881E-06  0.00000000E+00  0.00000000E+00 -3.29586865E-04  3.80572860E-04
  1.04122760E-04  4.55800752E-04 -3.23743425E-04 -8.21550234E-04  3.82889427E-04
 -4.37110106E-05 -9.99215638E-05  0.00000000E+00  6.91237924E-04  1.10731868E-03
  0.00000000E+00 -7.70372154E-04 -6.33420861E-04  0.00000000E+00  1.99984840E-04
  2.16254762E-04  0.00000000E+00 -5.20915557E-05  0.00000000E+00  0.00000000E+00
  1.90042890E-05  9.32197226E-05 -4.17521459E-04  0.00000000E+00  0.00000000E+00
  2.93780129E-05  1.07819666E-03  2.52907300E-05  0.00000000E+00  0.00000000E+00
 -3.23857381E-04  3.29287595E-05  0.00000000E+00 -7.83837250E-05 -1.13288184E-04
  0.00000000E+00  0.00000000E+00 -9.75915226E-05  1.06038638E-04  0.00000000E+00
 -1.26048328E-04  4.39335717E-05  0.00000000E+00  0.00000000E+00  9.08444127E-06
  5.15448273E-04 -6.97366324E-04  4.51667185E-05 -6.97715153E-05  2.24460519E-04
 -2.01070679E-04 -2.90951599E-05 -4.11109179E-05  0.00000000E+00  1.69778399E-04
  2.50776447E-04  0.00000000E+00  5.28642027E-04  3.22454580E-04  0.00000000E+00
 -2.22368045E-04 -6.68913108E-05  0.00000000E+00 -1.28691626E-05  0.00000000E+00
  0.00000000E+00  3.16163331E-06  1.54293005E-05 -1.92984900E-06  0.00000000E+00
  0.00000000E+00 -1.61673778E-04  9.46333956E-06 -1.90871307E-05  0.00000000E+00
  0.00000000E+00 -1.71183698E-04 -4.34833933E-05  0.00000000E+00 -6.10405187E-06
 -9.10729116E-06  0.00000000E+00  0.00000000E+00 -2.10650073E-05  9.66816631E-06
  0.00000000E+00  4.06213150E-05  6.13599599E-05  0.00000000E+00  0.00000000E+00
  1.55515170E-04 -1.04087900E-04  3.90064687E-05  6.49449171E-05 -9.94738409E-05
 -3.05825462E-05  2.32337355E-05  1.47659575E-05  0.00000000E+00  2.30605305E-04
  5.16229722E-05  0.00000000E+00  1.17705854E-04  2.02441341E-05  0.00000000E+00
  1.10200180E-05  0.00000000E+00  0.00000000E+00 -9.28179158E-06  1.91692917E-05
  1.73636032E-05  0.00000000E+00  0.00000000E+00 -8.98522352E-05  7.03107098E-05
 -2.55871876E-04  3.25207954E-05 -1.51183743E-05 -5.60139021E-04  1.53375493E-04
  7.97096086E-06  1.32159551E-05  0.00000000E+00 -4.96211188E-06 -4.16356161E-05
  0.00000000E+00  1.92769519E-04  1.35991811E-04  0.00000000E+00 -4.24883412E-05
  5.13064276E-05  0.00000000E+00 -2.14982205E-06  0.00000000E+00  0.00000000E+00
 -8.61256315E-06 -1.10640624E-05  2.43189332E-05  0.00000000E+00  0.00000000E+00
  5.54148586E-05  1.07841423E-04  6.48098263E-05  0.00000000E+00  0.00000000E+00
 -3.49469142E-05 -8.10195166E-05  0.00000000E+00  7.98426863E-06  9.67424668E-06
  0.00000000E+00  0.00000000E+00 -1.33264232E-06 -2.63491128E-05  0.00000000E+00
 -1.52298994E-05 -3.81046173E-05  0.00000000E+00  0.00000000E+00 -4.73876102E-06
 -1.71512707E-05  7.25194636E-04  2.25882088E-05 -1.93126840E-05  2.98921280E-04
 -3.99284168E-04  1.66019173E-05  2.72961016E-05  0.00000000E+00 -6.63725672E-05
 -1.53768547E-04  0.00000000E+00  1.58206107E-04 -2.13108104E-04  0.00000000E+00
 -1.57373294E-04  1.43183722E-04  0.00000000E+00 -4.08847976E-06  0.00000000E+00
  0.00000000E+00 -2.93997726E-05 -1.00686046E-05 -5.13238727E-05  0.00000000E+00
  0.00000000E+00  7.84189095E-05  1.22770638E-04 -6.47824733E-05  0.00000000E+00
  0.00000000E+00  3.41865533E-05  2.67579702E-05  0.00000000E+00  3.07998503E-06
  3.33879866E-06  0.00000000E+00  0.00000000E+00 -8.03527612E-06 -2.59473912E-06
  0.00000000E+00  3.68449557E-06 -2.50292986E-05  0.00000000E+00  0.00000000E+00
  9.76504985E-05 -1.53188184E-04  2.36815646E-04  1.35638115E-03 -1.46672928E-04
 -7.05610964E-04  9.13506462E-04  6.34006713E-05 -7.09227657E-05  0.00000000E+00
  5.74515226E-04 -2.08205304E-03  0.00000000E+00  1.05520118E-04  5.15567028E-04
  0.00000000E+00  1.88454180E-04 -3.06847673E-04  0.00000000E+00 -1.27662310E-04
  0.00000000E+00  0.00000000E+00 -2.03467172E-04 -1.58955124E-04 -4.60258860E-04
  0.00000000E+00  0.00000000E+00 -5.99342735E-04 -9.24097422E-04 -4.26750368E-05
  0.00000000E+00  0.00000000E+00  5.74314807E-05  1.21990545E-04  0.00000000E+00
  8.35868513E-06  3.69806869E-05  0.00000000E+00  0.00000000E+00 -2.45294616E-05
 -4.36932287E-06  0.00000000E+00 -1.36292666E-04  1.56854043E-04  0.00000000E+00
  0.00000000E+00 -3.16184668E-04 -3.80389951E-05  9.76645397E-01 -9.88510364E-03
  4.35764823E-02  3.69892390E-03 -9.00544109E-04 -4.48299985E-04  2.13134999E-03
  0.00000000E+00  5.16310585E-04 -2.50585763E-03  0.00000000E+00 -8.28980700E-05
  8.24603201E-04  0.00000000E+00  1.04152553E-04 -6.48764033E-05  0.00000000E+00
 -1.93790819E-04  0.00000000E+00  0.00000000E+00 -7.39099051E-05 -4.35722258E-05
  4.08851225E-04  0.00000000E+00  0.00000000E+00  8.57812494E-04  4.86090950E-04
 -2.03862609E-04  0.00000000E+00  0.00000000E+00 -1.46089502E-04 -3.66717551E-05
  0.00000000E+00 -5.32819145E-06  7.02862985E-05  0.00000000E+00  0.00000000E+00
 -2.82416438E-05  1.05259648E-05  0.00000000E+00 -8.80950617E-05  9.14391830E-05
  0.00000000E+00  0.00000000E+00 -1.69486316E-04  2.04205761E-04  3.72042479E-04
  1.99411410E-03  1.43593710E-03 -1.78923299E-05  5.31383374E-05  2.66953453E-04
  0.00000000E+00  3.74460070E-04  1.01923340E-03  0.00000000E+00 -1.47669462E-04
  2.36592962E-04  0.00000000E+00 -2.37120723E-05  0.00000000E+00  0.00000000E+00
  3.36852592E-05 -3.06120758E-05 -2.21829610E-04  0.00000000E+00  0.00000000E+00
 -3.43353862E-04  4.16277640E-04  9.76832759E-01 -9.18844578E-03  4.34685076E-02
  1.23815091E-04 -1.90754008E-03 -2.05170423E-03 -8.14313353E-04  0.00000000E+00
  2.09000099E-03  7.50154478E-04  0.00000000E+00 -3.92387600E-04  6.38236072E-04
  0.00000000E+00  2.25051776E-04 -3.02755829E-04  0.00000000E+00  2.99994736E-05
  0.00000000E+00  0.00000000E+00 -7.34647282E-05  6.51340270E-05  7.65584854E-04
  0.00000000E+00  0.00000000E+00 -2.06347653E-04  3.56629348E-04 -2.40956041E-04
  0.00000000E+00  0.00000000E+00  3.29519842E-04  1.29923944E-06  0.00000000E+00
 -8.07927618E-05  2.26901000E-06  0.00000000E+00  0.00000000E+00  1.50048102E-05