 Entering Gaussian System, Link 0=g16
 Input=hoono_a1_102p5293.gjf
 Output=hoono_a1_102p5293.log
 Initial command:
 /sw/contrib/gaussian/g16/B01/g16/l1.exe "/scr/Gau-18370.inp" -scrdir="/scr/"
 Entering Link 1 = /sw/contrib/gaussian/g16/B01/g16/l1.exe PID=     18371.
  
 Copyright (c) 1988-2017, Gaussian, Inc.  All Rights Reserved.
  
 This is part of the Gaussian(R) 16 program.  It is based on
 the Gaussian(R) 09 system (copyright 2009, Gaussian, Inc.),
 the Gaussian(R) 03 system (copyright 2003, Gaussian, Inc.),
 the Gaussian(R) 98 system (copyright 1998, Gaussian, Inc.),
 the Gaussian(R) 94 system (copyright 1995, Gaussian, Inc.),
 the Gaussian 92(TM) system (copyright 1992, Gaussian, Inc.),
 the Gaussian 90(TM) system (copyright 1990, Gaussian, Inc.),
 the Gaussian 88(TM) system (copyright 1988, Gaussian, Inc.),
 the Gaussian 86(TM) system (copyright 1986, Carnegie Mellon
 University), and the Gaussian 82(TM) system (copyright 1983,
 Carnegie Mellon University). Gaussian is a federally registered
 trademark of Gaussian, Inc.
  
 This software contains proprietary and confidential information,
 including trade secrets, belonging to Gaussian, Inc.
  
 This software is provided under written license and may be
 used, copied, transmitted, or stored only in accord with that
 written license.
  
 The following legend is applicable only to US Government
 contracts under FAR:
  
                    RESTRICTED RIGHTS LEGEND
  
 Use, reproduction and disclosure by the US Government is
 subject to restrictions as set forth in subparagraphs (a)
 and (c) of the Commercial Computer Software - Restricted
 Rights clause in FAR 52.227-19.
  
 Gaussian, Inc.
 340 Quinnipiac St., Bldg. 40, Wallingford CT 06492
  
  
 ---------------------------------------------------------------
 Warning -- This program may not be used in any manner that
 competes with the business of Gaussian, Inc. or will provide
 assistance to any competitor of Gaussian, Inc.  The licensee
 of this program is prohibited from giving any competitor of
 Gaussian, Inc. access to this program.  By using this program,
 the user acknowledges that Gaussian, Inc. is engaged in the
 business of creating and licensing software in the field of
 computational chemistry and represents and warrants to the
 licensee that it is not a competitor of Gaussian, Inc. and that
 it will not use this program in any manner prohibited above.
 ---------------------------------------------------------------
  

 Cite this work as:
 Gaussian 16, Revision B.01,
 M. J. Frisch, G. W. Trucks, H. B. Schlegel, G. E. Scuseria, 
 M. A. Robb, J. R. Cheeseman, G. Scalmani, V. Barone, 
 G. A. Petersson, H. Nakatsuji, X. Li, M. Caricato, A. V. Marenich, 
 J. Bloino, B. G. Janesko, R. Gomperts, B. Mennucci, H. P. Hratchian, 
 J. V. Ortiz, A. F. Izmaylov, J. L. Sonnenberg, D. Williams-Young, 
 F. Ding, F. Lipparini, F. Egidi, J. Goings, B. Peng, A. Petrone, 
 T. Henderson, D. Ranasinghe, V. G. Zakrzewski, J. Gao, N. Rega, 
 G. Zheng, W. Liang, M. Hada, M. Ehara, K. Toyota, R. Fukuda, 
 J. Hasegawa, M. Ishida, T. Nakajima, Y. Honda, O. Kitao, H. Nakai, 
 T. Vreven, K. Throssell, J. A. Montgomery, Jr., J. E. Peralta, 
 F. Ogliaro, M. J. Bearpark, J. J. Heyd, E. N. Brothers, K. N. Kudin, 
 V. N. Staroverov, T. A. Keith, R. Kobayashi, J. Normand, 
 K. Raghavachari, A. P. Rendell, J. C. Burant, S. S. Iyengar, 
 J. Tomasi, M. Cossi, J. M. Millam, M. Klene, C. Adamo, R. Cammi, 
 J. W. Ochterski, R. L. Martin, K. Morokuma, O. Farkas, 
 J. B. Foresman, and D. J. Fox, Gaussian, Inc., Wallingford CT, 2016.
 
 ******************************************
 Gaussian 16:  ES64L-G16RevB.01 20-Dec-2017
                 6-Mar-2022 
 ******************************************
 %nproc=28
 Will use up to   28 processors via shared memory.
 %mem=120GB
 %chk=hoono_a1_102p5293.chk
 ---------------------------------------
 #p freq mp2/aug-cc-pvtz density=current
 ---------------------------------------
 1/10=4,30=1,38=1/1,3;
 2/12=2,17=6,18=5,40=1/2;
 3/5=16,6=1,7=10,11=9,25=1,30=1,71=2,140=1/1,2,3;
 4//1;
 5/5=2,38=5,98=1/2;
 8/6=3,8=1,10=1,19=11,30=-1/1;
 9/15=3,16=-3/6;
 11/6=1,8=1,15=11,17=12,24=-1,27=1,28=-2,29=300,32=6,42=3/1,2,10;
 10/6=2,21=1/2;
 8/6=4,8=1,10=1,19=11,30=-1/11,4;
 10/5=1,20=4/2;
 11/12=2,14=11,16=1,17=2,28=-2,42=3,76=2/2,10,12;
 6/7=2,8=2,9=2,10=2,22=-1/1;
 7/8=1,10=1,12=2,25=1,44=2/1,2,3,16;
 1/10=4,30=1/3;
 99//99;
 Leave Link    1 at Sun Mar  6 19:21:19 2022, MaxMem= 16106127360 cpu:               2.4 elap:               0.1
 (Enter /sw/contrib/gaussian/g16/B01/g16/l101.exe)
 -----
 title
 -----
 Symbolic Z-matrix:
 Charge =  0 Multiplicity = 1
 H
 O                    1    r1
 O                    2    r2       1    a1
 N                    3    r3       2    a2       1    d1       0
 O                    4    r4       3    a3       2    d2       0
       Variables:
  r1                    0.98538                  
  r2                    1.42674                  
  r3                    1.38111                  
  r4                    1.19479                  
  a1                  102.52936                  
  a2                  113.13777                  
  a3                  114.33392                  
  d1                    0.                       
  d2                    0.                       
 
 ITRead=  0  0  0  0  0
 MicOpt= -1 -1 -1 -1 -1
 NAtoms=      5 NQM=        5 NQMF=       0 NMMI=      0 NMMIF=      0
                NMic=       0 NMicF=      0.
                    Isotopes and Nuclear Properties:
 (Nuclear quadrupole moments (NQMom) in fm**2, nuclear magnetic moments (NMagM)
  in nuclear magnetons)

  Atom         1           2           3           4           5
 IAtWgt=           1          16          16          14          16
 AtmWgt=   1.0078250  15.9949146  15.9949146  14.0030740  15.9949146
 NucSpn=           1           0           0           2           0
 AtZEff=  -0.0000000  -0.0000000  -0.0000000  -0.0000000  -0.0000000
 NQMom=    0.0000000   0.0000000   0.0000000   2.0440000   0.0000000
 NMagM=    2.7928460   0.0000000   0.0000000   0.4037610   0.0000000
 AtZNuc=   1.0000000   8.0000000   8.0000000   7.0000000   8.0000000
 Leave Link  101 at Sun Mar  6 19:21:19 2022, MaxMem= 16106127360 cpu:               3.2 elap:               0.1
 (Enter /sw/contrib/gaussian/g16/B01/g16/l103.exe)

 GradGradGradGradGradGradGradGradGradGradGradGradGradGradGradGradGradGrad
 Berny optimization.
 Initialization pass.
                       ----------------------------
                       !    Initial Parameters    !
                       ! (Angstroms and Degrees)  !
 ----------------------                            ----------------------
 !      Name          Value   Derivative information (Atomic Units)     !
 ------------------------------------------------------------------------
 !       r1          0.9854   calculate D2E/DX2 analytically            !
 !       r2          1.4267   calculate D2E/DX2 analytically            !
 !       r3          1.3811   calculate D2E/DX2 analytically            !
 !       r4          1.1948   calculate D2E/DX2 analytically            !
 !       a1        102.5294   calculate D2E/DX2 analytically            !
 !       a2        113.1378   calculate D2E/DX2 analytically            !
 !       a3        114.3339   calculate D2E/DX2 analytically            !
 !       d1          0.0      calculate D2E/DX2 analytically            !
 !       d2          0.0      calculate D2E/DX2 analytically            !
 ------------------------------------------------------------------------
 Trust Radius=3.00D-01 FncErr=1.00D-07 GrdErr=1.00D-07 EigMax=2.50D+02 EigMin=1.00D-04
 Number of steps in this run=      2 maximum allowed number of steps=      2.
 GradGradGradGradGradGradGradGradGradGradGradGradGradGradGradGradGradGrad

 Leave Link  103 at Sun Mar  6 19:21:19 2022, MaxMem= 16106127360 cpu:               0.7 elap:               0.1
 (Enter /sw/contrib/gaussian/g16/B01/g16/l202.exe)
                          Input orientation:                          
 ---------------------------------------------------------------------
 Center     Atomic      Atomic             Coordinates (Angstroms)
 Number     Number       Type             X           Y           Z
 ---------------------------------------------------------------------
      1          1           0        0.000000    0.000000    0.000000
      2          8           0        0.000000    0.000000    0.985377
      3          8           0        1.392759    0.000000    1.294893
      4          7           0        2.198049    0.000000    0.172856
      5          8           0        1.600673    0.000000   -0.861872
 ---------------------------------------------------------------------
                    Distance matrix (angstroms):
                    1          2          3          4          5
     1  H    0.000000
     2  O    0.985377   0.000000
     3  O    1.901716   1.426737   0.000000
     4  N    2.204835   2.343418   1.381108   0.000000
     5  O    1.817960   2.444276   2.166763   1.194788   0.000000
 Stoichiometry    HNO3
 Framework group  CS[SG(HNO3)]
 Deg. of freedom     7
 Full point group                 CS      NOp   2
 Largest Abelian subgroup         CS      NOp   2
 Largest concise Abelian subgroup C1      NOp   1
                         Standard orientation:                         
 ---------------------------------------------------------------------
 Center     Atomic      Atomic             Coordinates (Angstroms)
 Number     Number       Type             X           Y           Z
 ---------------------------------------------------------------------
      1          1           0        1.139489   -0.605341    0.000000
      2          8           0        1.315228    0.364237    0.000000
      3          8           0       -0.000000    0.917186    0.000000
      4          7           0       -0.992491   -0.043241    0.000000
      5          8           0       -0.589234   -1.167920    0.000000
 ---------------------------------------------------------------------
 Rotational constants (GHZ):          21.2988779           8.1041749           5.8704731
 Leave Link  202 at Sun Mar  6 19:21:19 2022, MaxMem= 16106127360 cpu:               0.5 elap:               0.0
 (Enter /sw/contrib/gaussian/g16/B01/g16/l301.exe)
 Standard basis: Aug-CC-pVTZ (5D, 7F)
 Ernie: Thresh=  0.10000D-02 Tol=  0.10000D-05 Strict=F.
 Ernie:  12 primitive shells out of 131 were deleted.
 There are   166 symmetry adapted cartesian basis functions of A'  symmetry.
 There are    79 symmetry adapted cartesian basis functions of A"  symmetry.
 There are   136 symmetry adapted basis functions of A'  symmetry.
 There are    71 symmetry adapted basis functions of A"  symmetry.
   207 basis functions,   315 primitive gaussians,   245 cartesian basis functions
    16 alpha electrons       16 beta electrons
       nuclear repulsion energy       122.6597392737 Hartrees.
 IExCor=    0 DFT=F Ex=HF Corr=None ExCW=0 ScaHFX=  1.000000
 ScaDFX=  1.000000  1.000000  1.000000  1.000000 ScalE2=  1.000000  1.000000
 IRadAn=      5 IRanWt=     -1 IRanGd=            0 ICorTp=0 IEmpDi=  4
 NAtoms=    5 NActive=    5 NUniq=    5 SFac= 1.00D+00 NAtFMM=   60 NAOKFM=F Big=F
 Integral buffers will be    131072 words long.
 Raffenetti 1 integral format.
 Two-electron integral symmetry is turned on.
 Leave Link  301 at Sun Mar  6 19:21:19 2022, MaxMem= 16106127360 cpu:               1.7 elap:               0.1
 (Enter /sw/contrib/gaussian/g16/B01/g16/l302.exe)
 NPDir=0 NMtPBC=     1 NCelOv=     1 NCel=       1 NClECP=     1 NCelD=      1
         NCelK=      1 NCelE2=     1 NClLst=     1 CellRange=     0.0.
 One-electron integrals computed using PRISM.
 One-electron integral symmetry used in STVInt
 NBasis=   207 RedAO= T EigKep=  1.31D-04  NBF=   136    71
 NBsUse=   207 1.00D-06 EigRej= -1.00D+00 NBFU=   136    71
 Leave Link  302 at Sun Mar  6 19:21:19 2022, MaxMem= 16106127360 cpu:               4.8 elap:               0.2
 (Enter /sw/contrib/gaussian/g16/B01/g16/l303.exe)
 DipDrv:  MaxL=1.
 Leave Link  303 at Sun Mar  6 19:21:19 2022, MaxMem= 16106127360 cpu:               1.5 elap:               0.1
 (Enter /sw/contrib/gaussian/g16/B01/g16/l401.exe)
 ExpMin= 2.53D-02 ExpMax= 1.53D+04 ExpMxC= 5.22D+02 IAcc=3 IRadAn=         5 AccDes= 0.00D+00
 Harris functional with IExCor=  205 and IRadAn=       5 diagonalized for initial guess.
 HarFok:  IExCor=  205 AccDes= 0.00D+00 IRadAn=         5 IDoV= 1 UseB2=F ITyADJ=14
 ICtDFT=  3500011 ScaDFX=  1.000000  1.000000  1.000000  1.000000
 FoFCou: FMM=F IPFlag=           0 FMFlag=      100000 FMFlg1=           0
         NFxFlg=           0 DoJE=T BraDBF=F KetDBF=T FulRan=T
         wScrn=  0.000000 ICntrl=       500 IOpCl=  0 I1Cent=   200000004 NGrid=           0
         NMat0=    1 NMatS0=      1 NMatT0=    0 NMatD0=    1 NMtDS0=    0 NMtDT0=    0
 Petite list used in FoFCou.
 Harris En= -279.644933505872    
 JPrj=0 DoOrth=F DoCkMO=F.
 Initial guess orbital symmetries:
       Occupied  (A') (A') (A') (A') (A') (A') (A') (A') (A') (A')
                 (A") (A') (A") (A') (A") (A')
       Virtual   (A") (A') (A') (A') (A') (A") (A') (A') (A') (A')
                 (A") (A') (A") (A') (A') (A") (A') (A') (A") (A')
                 (A') (A') (A') (A') (A") (A') (A') (A') (A") (A')
                 (A') (A") (A") (A') (A') (A") (A') (A") (A') (A")
                 (A') (A") (A') (A") (A') (A') (A') (A') (A") (A')
                 (A') (A") (A') (A") (A') (A") (A') (A') (A') (A")
                 (A') (A') (A") (A') (A') (A') (A") (A") (A') (A')
                 (A") (A') (A") (A") (A') (A') (A") (A') (A') (A')
                 (A") (A') (A') (A") (A') (A") (A") (A') (A') (A')
                 (A') (A") (A') (A") (A') (A') (A") (A') (A") (A')
                 (A") (A') (A') (A") (A") (A') (A') (A') (A") (A')
                 (A") (A') (A') (A') (A") (A') (A') (A') (A") (A')
                 (A") (A') (A') (A") (A") (A") (A") (A') (A') (A')
                 (A') (A') (A') (A") (A') (A") (A') (A") (A') (A')
                 (A") (A') (A") (A') (A') (A") (A') (A') (A') (A")
                 (A') (A') (A') (A") (A') (A") (A") (A') (A") (A')
                 (A') (A") (A") (A') (A") (A') (A') (A") (A") (A')
                 (A") (A") (A") (A') (A') (A") (A') (A') (A') (A")
                 (A') (A') (A') (A') (A') (A') (A') (A') (A') (A')
                 (A')
 The electronic state of the initial guess is 1-A'.
 Leave Link  401 at Sun Mar  6 19:21:20 2022, MaxMem= 16106127360 cpu:               7.4 elap:               0.3
 (Enter /sw/contrib/gaussian/g16/B01/g16/l502.exe)
 Keep R1 ints in memory in symmetry-blocked form, NReq=348887737.
 FoFCou: FMM=F IPFlag=           0 FMFlag=           0 FMFlg1=           0
         NFxFlg=           0 DoJE=F BraDBF=F KetDBF=F FulRan=T
         wScrn=  0.000000 ICntrl=       600 IOpCl=  0 I1Cent=           0 NGrid=           0
         NMat0=    1 NMatS0=  21528 NMatT0=    0 NMatD0=    1 NMtDS0=    0 NMtDT0=    0
 Petite list used in FoFCou.
 Closed shell SCF:
 Using DIIS extrapolation, IDIIS=  1040.
 NGot= 16106127360 LenX= 15988850015 LenY= 15988789549
 Requested convergence on RMS density matrix=1.00D-08 within 128 cycles.
 Requested convergence on MAX density matrix=1.00D-06.
 Requested convergence on             energy=1.00D-06.
 No special actions if energy rises.

 Cycle   1  Pass 1  IDiag  1:
 E= -279.364271603126    
 DIIS: error= 2.75D-02 at cycle   1 NSaved=   1.
 NSaved= 1 IEnMin= 1 EnMin= -279.364271603126     IErMin= 1 ErrMin= 2.75D-02
 ErrMax= 2.75D-02  0.00D+00 EMaxC= 1.00D-01 BMatC= 4.51D-01 BMatP= 4.51D-01
 IDIUse=3 WtCom= 7.25D-01 WtEn= 2.75D-01
 Coeff-Com:  0.100D+01
 Coeff-En:   0.100D+01
 Coeff:      0.100D+01
 Gap=     0.500 Goal=   None    Shift=    0.000
 GapD=    0.500 DampG=2.000 DampE=0.500 DampFc=1.0000 IDamp=-1.
 RMSDP=1.68D-03 MaxDP=8.73D-02              OVMax= 1.24D-01

 Cycle   2  Pass 1  IDiag  1:
 E= -279.446055319322     Delta-E=       -0.081783716196 Rises=F Damp=F
 DIIS: error= 1.91D-02 at cycle   2 NSaved=   2.
 NSaved= 2 IEnMin= 2 EnMin= -279.446055319322     IErMin= 2 ErrMin= 1.91D-02
 ErrMax= 1.91D-02  0.00D+00 EMaxC= 1.00D-01 BMatC= 8.67D-02 BMatP= 4.51D-01
 IDIUse=3 WtCom= 8.09D-01 WtEn= 1.91D-01
 Coeff-Com:  0.220D+00 0.780D+00
 Coeff-En:   0.818D-01 0.918D+00
 Coeff:      0.193D+00 0.807D+00
 Gap=     0.560 Goal=   None    Shift=    0.000
 RMSDP=9.67D-04 MaxDP=3.62D-02 DE=-8.18D-02 OVMax= 9.12D-02

 Cycle   3  Pass 1  IDiag  1:
 E= -279.484291277881     Delta-E=       -0.038235958559 Rises=F Damp=F
 DIIS: error= 1.07D-02 at cycle   3 NSaved=   3.
 NSaved= 3 IEnMin= 3 EnMin= -279.484291277881     IErMin= 3 ErrMin= 1.07D-02
 ErrMax= 1.07D-02  0.00D+00 EMaxC= 1.00D-01 BMatC= 3.09D-02 BMatP= 8.67D-02
 IDIUse=3 WtCom= 8.93D-01 WtEn= 1.07D-01
 Coeff-Com: -0.347D-01 0.363D+00 0.672D+00
 Coeff-En:   0.000D+00 0.216D+00 0.784D+00
 Coeff:     -0.310D-01 0.347D+00 0.684D+00
 Gap=     0.541 Goal=   None    Shift=    0.000
 RMSDP=4.09D-04 MaxDP=1.57D-02 DE=-3.82D-02 OVMax= 3.92D-02

 Cycle   4  Pass 1  IDiag  1:
 E= -279.505410808127     Delta-E=       -0.021119530246 Rises=F Damp=F
 DIIS: error= 1.59D-03 at cycle   4 NSaved=   4.
 NSaved= 4 IEnMin= 4 EnMin= -279.505410808127     IErMin= 4 ErrMin= 1.59D-03
 ErrMax= 1.59D-03  0.00D+00 EMaxC= 1.00D-01 BMatC= 5.87D-04 BMatP= 3.09D-02
 IDIUse=3 WtCom= 9.84D-01 WtEn= 1.59D-02
 Coeff-Com: -0.118D-01 0.455D-01 0.151D+00 0.815D+00
 Coeff-En:   0.000D+00 0.000D+00 0.000D+00 0.100D+01
 Coeff:     -0.116D-01 0.448D-01 0.149D+00 0.818D+00
 Gap=     0.528 Goal=   None    Shift=    0.000
 RMSDP=9.87D-05 MaxDP=2.27D-03 DE=-2.11D-02 OVMax= 1.17D-02

 Cycle   5  Pass 1  IDiag  1:
 E= -279.506214901264     Delta-E=       -0.000804093137 Rises=F Damp=F
 DIIS: error= 1.07D-03 at cycle   5 NSaved=   5.
 NSaved= 5 IEnMin= 5 EnMin= -279.506214901264     IErMin= 5 ErrMin= 1.07D-03
 ErrMax= 1.07D-03  0.00D+00 EMaxC= 1.00D-01 BMatC= 1.01D-04 BMatP= 5.87D-04
 IDIUse=3 WtCom= 9.89D-01 WtEn= 1.07D-02
 Coeff-Com:  0.534D-02-0.652D-01-0.110D+00 0.595D-01 0.111D+01
 Coeff-En:   0.000D+00 0.000D+00 0.000D+00 0.000D+00 0.100D+01
 Coeff:      0.528D-02-0.645D-01-0.109D+00 0.589D-01 0.111D+01
 Gap=     0.531 Goal=   None    Shift=    0.000
 RMSDP=7.92D-05 MaxDP=2.11D-03 DE=-8.04D-04 OVMax= 1.28D-02

 Cycle   6  Pass 1  IDiag  1:
 E= -279.506573091898     Delta-E=       -0.000358190634 Rises=F Damp=F
 DIIS: error= 3.21D-04 at cycle   6 NSaved=   6.
 NSaved= 6 IEnMin= 6 EnMin= -279.506573091898     IErMin= 6 ErrMin= 3.21D-04
 ErrMax= 3.21D-04  0.00D+00 EMaxC= 1.00D-01 BMatC= 2.39D-05 BMatP= 1.01D-04
 IDIUse=3 WtCom= 9.97D-01 WtEn= 3.21D-03
 Coeff-Com:  0.187D-02-0.703D-02-0.177D-01-0.184D+00 0.161D-01 0.119D+01
 Coeff-En:   0.000D+00 0.000D+00 0.000D+00 0.000D+00 0.000D+00 0.100D+01
 Coeff:      0.187D-02-0.701D-02-0.176D-01-0.183D+00 0.161D-01 0.119D+01
 Gap=     0.531 Goal=   None    Shift=    0.000
 RMSDP=4.64D-05 MaxDP=1.07D-03 DE=-3.58D-04 OVMax= 6.07D-03

 Cycle   7  Pass 1  IDiag  1:
 E= -279.506658225058     Delta-E=       -0.000085133161 Rises=F Damp=F
 DIIS: error= 1.31D-04 at cycle   7 NSaved=   7.
 NSaved= 7 IEnMin= 7 EnMin= -279.506658225058     IErMin= 7 ErrMin= 1.31D-04
 ErrMax= 1.31D-04  0.00D+00 EMaxC= 1.00D-01 BMatC= 3.55D-06 BMatP= 2.39D-05
 IDIUse=3 WtCom= 9.99D-01 WtEn= 1.31D-03
 Coeff-Com: -0.109D-02 0.113D-01 0.250D-01 0.175D-01-0.183D+00-0.154D+00
 Coeff-Com:  0.128D+01
 Coeff-En:   0.000D+00 0.000D+00 0.000D+00 0.000D+00 0.000D+00 0.000D+00
 Coeff-En:   0.100D+01
 Coeff:     -0.109D-02 0.113D-01 0.250D-01 0.174D-01-0.183D+00-0.154D+00
 Coeff:      0.128D+01
 Gap=     0.532 Goal=   None    Shift=    0.000
 RMSDP=1.75D-05 MaxDP=5.12D-04 DE=-8.51D-05 OVMax= 2.33D-03

 Cycle   8  Pass 1  IDiag  1:
 E= -279.506670154717     Delta-E=       -0.000011929659 Rises=F Damp=F
 DIIS: error= 4.71D-05 at cycle   8 NSaved=   8.
 NSaved= 8 IEnMin= 8 EnMin= -279.506670154717     IErMin= 8 ErrMin= 4.71D-05
 ErrMax= 4.71D-05  0.00D+00 EMaxC= 1.00D-01 BMatC= 5.89D-07 BMatP= 3.55D-06
 IDIUse=1 WtCom= 1.00D+00 WtEn= 0.00D+00
 Coeff-Com: -0.555D-03 0.404D-02 0.964D-02 0.251D-01-0.576D-01-0.191D+00
 Coeff-Com:  0.354D+00 0.857D+00
 Coeff:     -0.555D-03 0.404D-02 0.964D-02 0.251D-01-0.576D-01-0.191D+00
 Coeff:      0.354D+00 0.857D+00
 Gap=     0.532 Goal=   None    Shift=    0.000
 RMSDP=5.36D-06 MaxDP=1.51D-04 DE=-1.19D-05 OVMax= 6.37D-04

 Cycle   9  Pass 1  IDiag  1:
 E= -279.506671501075     Delta-E=       -0.000001346358 Rises=F Damp=F
 DIIS: error= 2.48D-05 at cycle   9 NSaved=   9.
 NSaved= 9 IEnMin= 9 EnMin= -279.506671501075     IErMin= 9 ErrMin= 2.48D-05
 ErrMax= 2.48D-05  0.00D+00 EMaxC= 1.00D-01 BMatC= 1.15D-07 BMatP= 5.89D-07
 IDIUse=1 WtCom= 1.00D+00 WtEn= 0.00D+00
 Coeff-Com:  0.239D-03-0.253D-02-0.527D-02-0.564D-02 0.469D-01 0.486D-01
 Coeff-Com: -0.339D+00 0.354D-01 0.122D+01
 Coeff:      0.239D-03-0.253D-02-0.527D-02-0.564D-02 0.469D-01 0.486D-01
 Coeff:     -0.339D+00 0.354D-01 0.122D+01
 Gap=     0.532 Goal=   None    Shift=    0.000
 RMSDP=2.43D-06 MaxDP=6.52D-05 DE=-1.35D-06 OVMax= 2.57D-04

 Cycle  10  Pass 1  IDiag  1:
 E= -279.506671759603     Delta-E=       -0.000000258527 Rises=F Damp=F
 DIIS: error= 5.53D-06 at cycle  10 NSaved=  10.
 NSaved=10 IEnMin=10 EnMin= -279.506671759603     IErMin=10 ErrMin= 5.53D-06
 ErrMax= 5.53D-06  0.00D+00 EMaxC= 1.00D-01 BMatC= 8.16D-09 BMatP= 1.15D-07
 IDIUse=1 WtCom= 1.00D+00 WtEn= 0.00D+00
 Coeff-Com: -0.382D-04 0.490D-03 0.120D-02-0.182D-02-0.110D-01 0.508D-02
 Coeff-Com:  0.735D-01-0.544D-01-0.439D+00 0.143D+01
 Coeff:     -0.382D-04 0.490D-03 0.120D-02-0.182D-02-0.110D-01 0.508D-02
 Coeff:      0.735D-01-0.544D-01-0.439D+00 0.143D+01
 Gap=     0.532 Goal=   None    Shift=    0.000
 RMSDP=6.96D-07 MaxDP=2.55D-05 DE=-2.59D-07 OVMax= 7.51D-05

 Cycle  11  Pass 1  IDiag  1:
 E= -279.506671783989     Delta-E=       -0.000000024387 Rises=F Damp=F
 DIIS: error= 2.16D-06 at cycle  11 NSaved=  11.
 NSaved=11 IEnMin=11 EnMin= -279.506671783989     IErMin=11 ErrMin= 2.16D-06
 ErrMax= 2.16D-06  0.00D+00 EMaxC= 1.00D-01 BMatC= 8.10D-10 BMatP= 8.16D-09
 IDIUse=1 WtCom= 1.00D+00 WtEn= 0.00D+00
 Coeff-Com: -0.155D-04 0.155D-03 0.322D-03 0.910D-03-0.203D-02-0.708D-02
 Coeff-Com:  0.177D-01 0.195D-01-0.426D-01-0.338D+00 0.135D+01
 Coeff:     -0.155D-04 0.155D-03 0.322D-03 0.910D-03-0.203D-02-0.708D-02
 Coeff:      0.177D-01 0.195D-01-0.426D-01-0.338D+00 0.135D+01
 Gap=     0.532 Goal=   None    Shift=    0.000
 RMSDP=2.40D-07 MaxDP=8.91D-06 DE=-2.44D-08 OVMax= 2.82D-05

 Cycle  12  Pass 1  IDiag  1:
 E= -279.506671786897     Delta-E=       -0.000000002908 Rises=F Damp=F
 DIIS: error= 6.98D-07 at cycle  12 NSaved=  12.
 NSaved=12 IEnMin=12 EnMin= -279.506671786897     IErMin=12 ErrMin= 6.98D-07
 ErrMax= 6.98D-07  0.00D+00 EMaxC= 1.00D-01 BMatC= 8.37D-11 BMatP= 8.10D-10
 IDIUse=1 WtCom= 1.00D+00 WtEn= 0.00D+00
 Coeff-Com:  0.258D-05-0.444D-04-0.963D-04 0.125D-03 0.112D-02-0.692D-03
 Coeff-Com: -0.726D-02 0.636D-02 0.404D-01-0.111D+00-0.179D+00 0.125D+01
 Coeff:      0.258D-05-0.444D-04-0.963D-04 0.125D-03 0.112D-02-0.692D-03
 Coeff:     -0.726D-02 0.636D-02 0.404D-01-0.111D+00-0.179D+00 0.125D+01
 Gap=     0.532 Goal=   None    Shift=    0.000
 RMSDP=8.25D-08 MaxDP=2.69D-06 DE=-2.91D-09 OVMax= 9.59D-06

 Cycle  13  Pass 1  IDiag  1:
 E= -279.506671787188     Delta-E=       -0.000000000291 Rises=F Damp=F
 DIIS: error= 1.54D-07 at cycle  13 NSaved=  13.
 NSaved=13 IEnMin=13 EnMin= -279.506671787188     IErMin=13 ErrMin= 1.54D-07
 ErrMax= 1.54D-07  0.00D+00 EMaxC= 1.00D-01 BMatC= 7.05D-12 BMatP= 8.37D-11
 IDIUse=1 WtCom= 1.00D+00 WtEn= 0.00D+00
 Coeff-Com:  0.127D-05-0.118D-04-0.171D-04-0.122D-03 0.476D-04 0.917D-03
 Coeff-Com: -0.102D-02-0.248D-02-0.225D-02 0.550D-01-0.131D+00-0.145D+00
 Coeff-Com:  0.123D+01
 Coeff:      0.127D-05-0.118D-04-0.171D-04-0.122D-03 0.476D-04 0.917D-03
 Coeff:     -0.102D-02-0.248D-02-0.225D-02 0.550D-01-0.131D+00-0.145D+00
 Coeff:      0.123D+01
 Gap=     0.532 Goal=   None    Shift=    0.000
 RMSDP=2.20D-08 MaxDP=6.47D-07 DE=-2.91D-10 OVMax= 1.97D-06

 Cycle  14  Pass 1  IDiag  1:
 E= -279.506671787208     Delta-E=       -0.000000000020 Rises=F Damp=F
 DIIS: error= 4.10D-08 at cycle  14 NSaved=  14.
 NSaved=14 IEnMin=14 EnMin= -279.506671787208     IErMin=14 ErrMin= 4.10D-08
 ErrMax= 4.10D-08  0.00D+00 EMaxC= 1.00D-01 BMatC= 4.82D-13 BMatP= 7.05D-12
 IDIUse=1 WtCom= 1.00D+00 WtEn= 0.00D+00
 Coeff-Com: -0.299D-06 0.443D-05 0.884D-05-0.366D-05-0.112D-03 0.575D-04
 Coeff-Com:  0.645D-03-0.318D-03-0.357D-02 0.799D-02 0.166D-01-0.898D-01
 Coeff-Com: -0.218D-01 0.109D+01
 Coeff:     -0.299D-06 0.443D-05 0.884D-05-0.366D-05-0.112D-03 0.575D-04
 Coeff:      0.645D-03-0.318D-03-0.357D-02 0.799D-02 0.166D-01-0.898D-01
 Coeff:     -0.218D-01 0.109D+01
 Gap=     0.532 Goal=   None    Shift=    0.000
 RMSDP=4.35D-09 MaxDP=1.10D-07 DE=-2.04D-11 OVMax= 4.31D-07

 SCF Done:  E(RHF) =  -279.506671787     A.U. after   14 cycles
            NFock= 14  Conv=0.44D-08     -V/T= 2.0023
 KE= 2.788773482404D+02 PE=-9.062017614173D+02 EE= 2.251580021160D+02
 Leave Link  502 at Sun Mar  6 19:21:23 2022, MaxMem= 16106127360 cpu:              56.6 elap:               3.7
 (Enter /sw/contrib/gaussian/g16/B01/g16/l801.exe)
 ExpMin= 2.53D-02 ExpMax= 1.53D+04 ExpMxC= 5.22D+02 IAcc=3 IRadAn=         5 AccDes= 0.00D+00
 HarFok:  IExCor=  205 AccDes= 0.00D+00 IRadAn=         5 IDoV=-2 UseB2=F ITyADJ=14
 ICtDFT= 12500011 ScaDFX=  1.000000  1.000000  1.000000  1.000000
 Largest valence mixing into a core orbital is  2.07D-04
 Largest core mixing into a valence orbital is  3.08D-05
 Range of M.O.s used for correlation:     5   207
 NBasis=   207 NAE=    16 NBE=    16 NFC=     4 NFV=     0
 NROrb=    203 NOA=    12 NOB=    12 NVA=   191 NVB=   191

 **** Warning!!: The largest alpha MO coefficient is  0.16122587D+02

 Leave Link  801 at Sun Mar  6 19:21:23 2022, MaxMem= 16106127360 cpu:               2.1 elap:               0.1
 (Enter /sw/contrib/gaussian/g16/B01/g16/l906.exe)
 Frozen-core derivative calculation, NFC=   4 NFV=   0.
 FulOut=F Deriv=T AODrv=T NAtomX=     5
   MMem=           0  MDisk=          12 MDiskD=          12
  W3Min=      811440 MinDsk=     2425030 NBas6D=         245
 NBas2D=       30762    NTT=       30135    LW2=     7400000
    MDV= 16105571560 MDiskM=      328644 NBas2p=       30759
 Disk-based method using ON**2 memory for 12 occupieds at a time.
 Permanent disk used for amplitudes=    11516536 words.
 Estimated scratch disk usage=   321863743 words.
 IMap=   1   2   3   4   5   6   7   8   9  10  11  12  13  14  15  16
 Actual    scratch disk usage=   310892607 words.
 JobTyp=1 Pass  1:  I=   5 to  16 NPSUse= 28 ParTrn=T ParDer=T DoDerP=T.
 (rs|ai) integrals will be sorted in core.
 Spin components of T(2) and E(2):
     alpha-alpha T2 =       0.3476569256D-01 E2=     -0.1244605929D+00
     alpha-beta  T2 =       0.1844544704D+00 E2=     -0.6995116821D+00
     beta-beta   T2 =       0.3476569256D-01 E2=     -0.1244605929D+00
 The integrals were generated   1 times.
 ANorm=    0.1119815099D+01
 E2 =    -0.9484328680D+00 EUMP2 =    -0.28045510465516D+03
 Leave Link  906 at Sun Mar  6 19:23:01 2022, MaxMem= 16106127360 cpu:            2729.9 elap:              97.7
 (Enter /sw/contrib/gaussian/g16/B01/g16/l1101.exe)
 Using compressed Sx but separate Hx and Fx, NAtomX=     5.
 Will process      6 centers per pass.
 Leave Link 1101 at Sun Mar  6 19:23:01 2022, MaxMem= 16106127360 cpu:               6.6 elap:               0.3
 (Enter /sw/contrib/gaussian/g16/B01/g16/l1102.exe)
 Leave Link 1102 at Sun Mar  6 19:23:01 2022, MaxMem= 16106127360 cpu:               0.5 elap:               0.0
 (Enter /sw/contrib/gaussian/g16/B01/g16/l1110.exe)
 Forming Gx(P) for the SCF density, NAtomX=     5.
 Integral derivatives from FoFJK, PRISM(SPDF).
 Do as many integral derivatives as possible in FoFJK.
 G2DrvN: MDV=   16106126844.
 G2DrvN: will do     6 centers at a time, making    1 passes.
 Calling FoFCou, ICntrl=  3107 FMM=F I1Cent=   0 AccDes= 0.00D+00.
 FoFJK:  IHMeth= 1 ICntrl=    3107 DoSepK=F KAlg= 0 I1Cent=           0 FoldK=F
 IRaf=         0 NMat=       1 IRICut=       1 DoRegI=T DoRafI=F ISym2E= 1 IDoP0=0 IntGTp=1.
 FoFCou: FMM=F IPFlag=           0 FMFlag=      100000 FMFlg1=           0
         NFxFlg=           0 DoJE=F BraDBF=F KetDBF=F FulRan=T
         wScrn=  0.000000 ICntrl=      3107 IOpCl=  0 I1Cent=           0 NGrid=           0
         NMat0=    1 NMatS0=      1 NMatT0=    0 NMatD0=    1 NMtDS0=    0 NMtDT0=    0
 Petite list used in FoFCou.
 End of G2Drv F.D. properties file   721 does not exist.
 End of G2Drv F.D. properties file   722 does not exist.
 End of G2Drv F.D. properties file   788 does not exist.
 Leave Link 1110 at Sun Mar  6 19:23:05 2022, MaxMem= 16106127360 cpu:              87.1 elap:               3.1
 (Enter /sw/contrib/gaussian/g16/B01/g16/l1002.exe)
 Minotr:  Closed shell wavefunction.
          IDoAtm=11111
          Frozen-core window.
          Direct CPHF calculation.
          Differentiating once with respect to electric field.
                with respect to dipole field.
          Differentiating once with respect to nuclear coordinates.
          Requested convergence is 1.0D-08 RMS, and 1.0D-07 maximum.
          Secondary convergence is 1.0D-12 RMS, and 1.0D-12 maximum.
          NewPWx=T KeepS1=T KeepF1=T KeepIn=T MapXYZ=F SortEE=F KeepMc=T.
 Keep R1 ints in memory in symmetry-blocked form, NReq=348888983.
 FoFCou: FMM=F IPFlag=           0 FMFlag=           0 FMFlg1=           0
         NFxFlg=           0 DoJE=F BraDBF=F KetDBF=F FulRan=T
         wScrn=  0.000000 ICntrl=       600 IOpCl=  0 I1Cent=           0 NGrid=           0
         NMat0=    1 NMatS0=  21528 NMatT0=    0 NMatD0=    1 NMtDS0=    0 NMtDT0=    0
 Petite list used in FoFCou.
          MDV=   16106127360 using IRadAn=       1.
          Solving linear equations simultaneously, MaxMat=       0.
          There are    18 degrees of freedom in the 1st order CPHF.  IDoFFX=6 NUNeed=    18.
     15 vectors produced by pass  0 Test12= 1.70D-14 5.56D-09 XBig12= 7.93D+00 1.23D+00.
 AX will form    15 AO Fock derivatives at one time.
     15 vectors produced by pass  1 Test12= 1.70D-14 5.56D-09 XBig12= 1.35D+00 2.30D-01.
     15 vectors produced by pass  2 Test12= 1.70D-14 5.56D-09 XBig12= 6.40D-02 5.80D-02.
     15 vectors produced by pass  3 Test12= 1.70D-14 5.56D-09 XBig12= 1.97D-03 1.05D-02.
     15 vectors produced by pass  4 Test12= 1.70D-14 5.56D-09 XBig12= 4.03D-05 1.18D-03.
     15 vectors produced by pass  5 Test12= 1.70D-14 5.56D-09 XBig12= 5.75D-07 1.21D-04.
     15 vectors produced by pass  6 Test12= 1.70D-14 5.56D-09 XBig12= 4.59D-09 1.26D-05.
     14 vectors produced by pass  7 Test12= 1.70D-14 5.56D-09 XBig12= 3.44D-11 8.76D-07.
      3 vectors produced by pass  8 Test12= 1.70D-14 5.56D-09 XBig12= 2.32D-13 6.08D-08.
      1 vectors produced by pass  9 Test12= 1.70D-14 5.56D-09 XBig12= 1.58D-15 6.35D-09.
 InvSVY:  IOpt=1 It=  1 EMax= 8.88D-16
 Solved reduced A of dimension   123 with    15 vectors.
 FullF1:  Do perturbations      1 to      18.
 Saving first derivative matrices.
 End of Minotr F.D. properties file   721 does not exist.
 End of Minotr F.D. properties file   722 does not exist.
 End of Minotr F.D. properties file   788 does not exist.
 Leave Link 1002 at Sun Mar  6 19:23:07 2022, MaxMem= 16106127360 cpu:              75.9 elap:               2.9
 (Enter /sw/contrib/gaussian/g16/B01/g16/l811.exe)
 MDV= 16106127360.
 Form MO integral derivatives with frozen-active canonical formalism.
 MOERI=1 MOERIx=1 NAtoms=     5 NAtomX=     5.
 Discarding MO integrals.
 MO basis two electron integral derivatives will not be stored on disk.
 IAlg= 3 DoFC=T DoPWx=T Debug=F.
 Frozen-core window:  NFC=   4 NFV=   0.
 Reordered first order wavefunction length =     18678272
 In DefCFB: NBatch=  1 ICI= 16 ICA=191 LFMax= 96
            Large arrays: LIAPS=   619940160 LIARS=   288257200 words.
 In StABat: MaxSiz= 55 MinSiz= 25 NAtomB=  5
 DoIAMN: NPSUse= 28.
 Leave Link  811 at Sun Mar  6 19:24:29 2022, MaxMem= 16106127360 cpu:            2269.1 elap:              81.2
 (Enter /sw/contrib/gaussian/g16/B01/g16/l804.exe)
 Frozen-core window:  NFC=   4 NFV=   0.
 Closed-shell transformation, MDV= 16106127360 ITran=4 ISComp=1.
 Semi-Direct transformation.
 ModeAB=           2 MOrb=            16 LenV=   16104919939
 LASXX=     67341636 LTotXX=    67341636 LenRXX=    67341636
 LTotAB=    68301760 MaxLAS=    99807120 LenRXY=    99807120
 NonZer=   134683272 LenScr=   202817536 LnRSAI=           0
 LnScr1=           0 LExtra=           0 Total=    369966292
 MaxDsk=          -1 SrtSym=           F ITran=            4
 DoSDTr:  NPSUse= 28
 JobTyp=0 Pass  1:  I=   1 to  16.
 (rs|ai) integrals will be sorted in core.
 Complete sort for first half transformation.
 First half transformation complete.
 Begin second half transformation for I=  10.
 Begin second half transformation for I=  10.
 Complete sort for second half transformation.
 Second half transformation complete.
 Spin components of T(2) and E(2):
     alpha-alpha T2 =       0.3476569256D-01 E2=     -0.1244605929D+00
     alpha-beta  T2 =       0.1844544704D+00 E2=     -0.6995116821D+00
     beta-beta   T2 =       0.3476569256D-01 E2=     -0.1244605929D+00
 ANorm=    0.1583657700D+01
 E2 =    -0.9484328680D+00 EUMP2 =    -0.28045510465516D+03
 Leave Link  804 at Sun Mar  6 19:24:45 2022, MaxMem= 16106127360 cpu:             448.1 elap:              16.1
 (Enter /sw/contrib/gaussian/g16/B01/g16/l1002.exe)
 Minotr:  Closed shell wavefunction.
          Computing MP2/KS-MP2 derivatives.
          Using Z-Vector for PSCF gradient.
          Skipping F1 and S1 gradient terms here.
          IDoAtm=11111
          Frozen-core window.
          Using MO integrals in the linear equations.
          Forming densities via direct SCF.
          Differentiating once with respect to electric field.
                with respect to dipole field.
          Differentiating once with respect to nuclear coordinates.
          Using symmetry in CPHF.
          Requested convergence is 1.0D-10 RMS, and 1.0D-09 maximum.
          NewPWx=F KeepS1=T KeepF1=T KeepIn=T MapXYZ=F SortEE=F KeepMc=T.
          MDV=   16106127360 using IRadAn=       5.
          Solving linear equations separately, MaxMat=       0.
          There are     1 degrees of freedom in the 1st order CPHF.  IDoFFX=0 NUNeed=     1.
 FoFJK:  IHMeth= 1 ICntrl=       0 DoSepK=F KAlg= 0 I1Cent=           0 FoldK=F
 IRaf=         0 NMat=       1 IRICut=       1 DoRegI=T DoRafI=F ISym2E= 0 IDoP0=0 IntGTp=1.
 FoFCou: FMM=F IPFlag=           0 FMFlag=      100000 FMFlg1=           0
         NFxFlg=           0 DoJE=F BraDBF=F KetDBF=F FulRan=T
         wScrn=  0.000000 ICntrl=         0 IOpCl=  0 I1Cent=           0 NGrid=           0
         NMat0=    1 NMatS0=      1 NMatT0=    0 NMatD0=    1 NMtDS0=    0 NMtDT0=    0
 Symmetry not used in FoFCou.
 LinEq1:  Iter=  0 NonCon=     1 RMS=6.57D-03 Max=1.68D-01 NDo=     1
 LinEq1:  Iter=  1 NonCon=     1 RMS=1.99D-03 Max=3.09D-02 NDo=     1
 LinEq1:  Iter=  2 NonCon=     1 RMS=8.84D-04 Max=1.43D-02 NDo=     1
 LinEq1:  Iter=  3 NonCon=     1 RMS=3.81D-04 Max=8.24D-03 NDo=     1
 LinEq1:  Iter=  4 NonCon=     1 RMS=1.38D-04 Max=1.73D-03 NDo=     1
 LinEq1:  Iter=  5 NonCon=     1 RMS=7.64D-05 Max=1.36D-03 NDo=     1
 LinEq1:  Iter=  6 NonCon=     1 RMS=2.43D-05 Max=3.53D-04 NDo=     1
 LinEq1:  Iter=  7 NonCon=     1 RMS=8.11D-06 Max=1.08D-04 NDo=     1
 LinEq1:  Iter=  8 NonCon=     1 RMS=3.95D-06 Max=6.07D-05 NDo=     1
 LinEq1:  Iter=  9 NonCon=     1 RMS=1.04D-06 Max=1.14D-05 NDo=     1
 LinEq1:  Iter= 10 NonCon=     1 RMS=2.31D-07 Max=2.81D-06 NDo=     1
 LinEq1:  Iter= 11 NonCon=     1 RMS=4.99D-08 Max=7.42D-07 NDo=     1
 LinEq1:  Iter= 12 NonCon=     1 RMS=1.17D-08 Max=1.56D-07 NDo=     1
 LinEq1:  Iter= 13 NonCon=     1 RMS=2.05D-09 Max=2.30D-08 NDo=     1
 LinEq1:  Iter= 14 NonCon=     1 RMS=4.26D-10 Max=5.71D-09 NDo=     1
 LinEq1:  Iter= 15 NonCon=     0 RMS=8.73D-11 Max=8.11D-10 NDo=     1
 Linear equations converged to 1.000D-10 1.000D-09 after    15 iterations.
 End of Minotr F.D. properties file   721 does not exist.
 End of Minotr F.D. properties file   722 does not exist.
 End of Minotr F.D. properties file   788 does not exist.
 Leave Link 1002 at Sun Mar  6 19:24:47 2022, MaxMem= 16106127360 cpu:              66.7 elap:               2.4
 (Enter /sw/contrib/gaussian/g16/B01/g16/l1102.exe)
 Use density number 2.
 Symmetrizing basis deriv contribution to polar:
 IMax=3 JMax=2 DiffMx= 0.00D+00
 Leave Link 1102 at Sun Mar  6 19:24:47 2022, MaxMem= 16106127360 cpu:               2.3 elap:               0.1
 (Enter /sw/contrib/gaussian/g16/B01/g16/l1110.exe)
 Forming Gx(P) for generalized density number  2 NAtomX=     5.
 Integral derivatives from FoFJK, PRISM(SPDF).
 Do as many integral derivatives as possible in FoFJK.
 G2DrvN: MDV=   16106126844.
 G2DrvN: will do     6 centers at a time, making    1 passes.
 Calling FoFCou, ICntrl=  3107 FMM=F I1Cent=   0 AccDes= 0.00D+00.
 FoFJK:  IHMeth= 1 ICntrl=    3107 DoSepK=F KAlg= 0 I1Cent=           0 FoldK=F
 IRaf=         0 NMat=       1 IRICut=       1 DoRegI=T DoRafI=F ISym2E= 1 IDoP0=0 IntGTp=1.
 FoFCou: FMM=F IPFlag=           0 FMFlag=      100000 FMFlg1=           0
         NFxFlg=           0 DoJE=F BraDBF=F KetDBF=F FulRan=T
         wScrn=  0.000000 ICntrl=      3107 IOpCl=  0 I1Cent=           0 NGrid=           0
         NMat0=    1 NMatS0=      1 NMatT0=    0 NMatD0=    1 NMtDS0=    0 NMtDT0=    0
 Petite list used in FoFCou.
 End of G2Drv F.D. properties file   721 does not exist.
 End of G2Drv F.D. properties file   722 does not exist.
 End of G2Drv F.D. properties file   788 does not exist.
 Leave Link 1110 at Sun Mar  6 19:24:51 2022, MaxMem= 16106127360 cpu:              87.1 elap:               3.1
 (Enter /sw/contrib/gaussian/g16/B01/g16/l1112.exe)
 MP22nd: MDV=   16106127360
 This link is doing NAtomX=     5 total of    18 degrees of freedom.
 Using ON3 I/O method in MakUI.
 Frozen-core window:  NFC=   4 NFV=   0.
 Using Ix for Sx.
 Use MO integrals over full window.
 Using OV2 memory method for fx*t*t/D, MaxI=    16 DoOO2=F NP=  28.
 R2 and R3 integrals will be kept in memory, NReq=   915591705.
 FoFCou: FMM=F IPFlag=           0 FMFlag=           0 FMFlg1=           0
         NFxFlg=           0 DoJE=F BraDBF=F KetDBF=F FulRan=T
         wScrn=  0.000000 ICntrl=       600 IOpCl=  0 I1Cent=           0 NGrid=           0
         NMat0=    1 NMatS0=      1 NMatT0=    0 NMatD0=    1 NMtDS0=    0 NMtDT0=    0
 Symmetry not used in FoFCou.
 DD1Dir will call FoFMem   1 times, MxPair=       272
 NAB=   136 NAA=     0 NBB=     0.
 Symmetry is being used.
 FoFJK:  IHMeth= 1 ICntrl=       0 DoSepK=F KAlg= 0 I1Cent=           0 FoldK=F
 IRaf=         0 NMat=      18 IRICut=      45 DoRegI=T DoRafI=T ISym2E= 2 IDoP0=3 IntGTp=3.
 Discarding MO integrals.
 Leave Link 1112 at Sun Mar  6 19:25:24 2022, MaxMem= 16106127360 cpu:             926.7 elap:              33.5
 (Enter /sw/contrib/gaussian/g16/B01/g16/l601.exe)
 Copying SCF densities to generalized density rwf, IOpCl= 0 IROHF=0.

 **********************************************************************

            Population analysis using the MP2 Density.

 **********************************************************************

 Orbital symmetries:
       Occupied  (A') (A') (A') (A') (A') (A') (A') (A') (A') (A')
                 (A") (A') (A') (A") (A') (A")
       Virtual   (A') (A") (A') (A') (A") (A') (A') (A') (A") (A')
                 (A") (A') (A') (A') (A") (A') (A') (A") (A') (A')
                 (A') (A') (A') (A') (A") (A') (A') (A") (A') (A')
                 (A') (A") (A") (A') (A') (A') (A") (A') (A") (A')
                 (A") (A") (A') (A') (A") (A') (A') (A") (A') (A')
                 (A') (A") (A') (A') (A") (A') (A") (A') (A") (A')
                 (A') (A') (A") (A') (A') (A') (A") (A") (A') (A')
                 (A") (A') (A") (A') (A") (A') (A") (A') (A') (A')
                 (A") (A') (A') (A") (A') (A") (A") (A') (A') (A')
                 (A') (A') (A") (A") (A') (A') (A") (A") (A') (A')
                 (A") (A') (A") (A') (A") (A') (A') (A') (A") (A')
                 (A") (A') (A') (A') (A") (A') (A') (A') (A") (A')
                 (A") (A") (A') (A') (A") (A") (A') (A") (A') (A')
                 (A') (A') (A") (A') (A') (A") (A") (A') (A') (A')
                 (A") (A") (A') (A') (A') (A") (A') (A') (A') (A")
                 (A') (A') (A') (A") (A") (A') (A") (A') (A') (A")
                 (A') (A") (A') (A") (A") (A') (A') (A") (A") (A")
                 (A') (A") (A") (A') (A') (A") (A') (A') (A') (A")
                 (A') (A') (A') (A') (A') (A') (A') (A') (A') (A')
                 (A')
 The electronic state is 1-A'.
 Alpha  occ. eigenvalues --  -20.72006 -20.68615 -20.66779 -15.82511  -1.64284
 Alpha  occ. eigenvalues --   -1.50410  -1.29362  -0.96041  -0.83308  -0.75824
 Alpha  occ. eigenvalues --   -0.73928  -0.63684  -0.61831  -0.61758  -0.50350
 Alpha  occ. eigenvalues --   -0.49731
 Alpha virt. eigenvalues --    0.03471   0.06104   0.09522   0.10044   0.12008
 Alpha virt. eigenvalues --    0.12259   0.14922   0.15114   0.17771   0.18093
 Alpha virt. eigenvalues --    0.18995   0.21126   0.21643   0.24273   0.24640
 Alpha virt. eigenvalues --    0.26953   0.31189   0.31562   0.33839   0.34336
 Alpha virt. eigenvalues --    0.34570   0.39237   0.44771   0.48569   0.50449
 Alpha virt. eigenvalues --    0.51899   0.54723   0.56177   0.60099   0.61991
 Alpha virt. eigenvalues --    0.63894   0.68792   0.71804   0.72441   0.74439
 Alpha virt. eigenvalues --    0.76242   0.76739   0.79610   0.80651   0.84160
 Alpha virt. eigenvalues --    0.84313   0.85034   0.88605   0.90710   0.93226
 Alpha virt. eigenvalues --    0.94632   0.95510   1.01723   1.02872   1.05734
 Alpha virt. eigenvalues --    1.06426   1.09343   1.14178   1.15619   1.16923
 Alpha virt. eigenvalues --    1.22304   1.22644   1.24429   1.34692   1.37075
 Alpha virt. eigenvalues --    1.37454   1.46881   1.48663   1.50744   1.53888
 Alpha virt. eigenvalues --    1.59601   1.59731   1.60775   1.62888   1.69734
 Alpha virt. eigenvalues --    1.73323   1.80164   1.83080   1.88100   1.88893
 Alpha virt. eigenvalues --    1.92590   1.97961   1.99060   2.05124   2.12274
 Alpha virt. eigenvalues --    2.12697   2.16192   2.18510   2.24482   2.25825
 Alpha virt. eigenvalues --    2.29036   2.34811   2.36277   2.38524   2.40058
 Alpha virt. eigenvalues --    2.43137   2.46928   2.47808   2.52772   2.53520
 Alpha virt. eigenvalues --    2.55210   2.55722   2.61510   2.62860   2.67229
 Alpha virt. eigenvalues --    2.67365   2.75812   2.81677   2.82177   2.82878
 Alpha virt. eigenvalues --    2.91895   2.98438   3.04620   3.05143   3.11235
 Alpha virt. eigenvalues --    3.11359   3.16928   3.20317   3.30518   3.33298
 Alpha virt. eigenvalues --    3.36460   3.47431   3.67947   3.86804   3.91690
 Alpha virt. eigenvalues --    4.17991   4.22046   4.22827   4.26744   4.37164
 Alpha virt. eigenvalues --    4.50301   4.51680   4.55709   4.59033   4.69825
 Alpha virt. eigenvalues --    4.80866   4.89945   4.91370   4.94392   5.00343
 Alpha virt. eigenvalues --    5.00636   5.10600   5.13412   5.18240   5.24803
 Alpha virt. eigenvalues --    5.26301   5.31871   5.32528   5.36102   5.54813
 Alpha virt. eigenvalues --    5.64531   5.70280   5.88112   5.99884   6.26499
 Alpha virt. eigenvalues --    6.29166   6.36349   6.38349   6.59308   6.65414
 Alpha virt. eigenvalues --    6.66418   6.68877   6.72752   6.79988   6.80069
 Alpha virt. eigenvalues --    6.85234   6.96697   7.00465   7.06646   7.08568
 Alpha virt. eigenvalues --    7.15027   7.17255   7.17536   7.19992   7.24505
 Alpha virt. eigenvalues --    7.24528   7.26910   7.34706   7.38610   7.42018
 Alpha virt. eigenvalues --    7.44331   7.46204   7.56084   7.65902   7.66411
 Alpha virt. eigenvalues --    7.79178   7.87638   7.95133   8.05046   8.29269
 Alpha virt. eigenvalues --    8.50513   8.65231  13.62110  14.74068  15.09063
 Alpha virt. eigenvalues --   15.72557
          Condensed to atoms (all electrons):
               1          2          3          4          5
     1  H    0.573414   0.126495   0.026235  -0.001638  -0.007186
     2  O    0.126495   8.388978  -0.232459  -0.000506  -0.008864
     3  O    0.026235  -0.232459   8.371901  -0.167981  -0.034860
     4  N   -0.001638  -0.000506  -0.167981   7.132534  -0.114228
     5  O   -0.007186  -0.008864  -0.034860  -0.114228   8.363159
 Mulliken charges:
               1
     1  H    0.282680
     2  O   -0.273643
     3  O    0.037164
     4  N    0.151820
     5  O   -0.198020
 Sum of Mulliken charges =  -0.00000
 Mulliken charges with hydrogens summed into heavy atoms:
               1
     2  O    0.009037
     3  O    0.037164
     4  N    0.151820
     5  O   -0.198020
 APT charges:
               1
     1  H    0.270387
     2  O   -0.301874
     3  O   -0.309712
     4  N    0.642623
     5  O   -0.301423
 Sum of APT charges =  -0.00000
 APT charges with hydrogens summed into heavy atoms:
               1
     2  O   -0.031487
     3  O   -0.309712
     4  N    0.642623
     5  O   -0.301423
 Electronic spatial extent (au):  <R**2>=            207.4335
 Charge=             -0.0000 electrons
 Dipole moment (field-independent basis, Debye):
    X=              0.0976    Y=             -1.1100    Z=              0.0000  Tot=              1.1143
 Quadrupole moment (field-independent basis, Debye-Ang):
   XX=            -23.3029   YY=            -22.9351   ZZ=            -21.9406
   XY=             -2.0587   XZ=              0.0000   YZ=              0.0000
 Traceless Quadrupole moment (field-independent basis, Debye-Ang):
   XX=             -0.5767   YY=             -0.2089   ZZ=              0.7856
   XY=             -2.0587   XZ=              0.0000   YZ=              0.0000
 Octapole moment (field-independent basis, Debye-Ang**2):
  XXX=              2.7407  YYY=              0.2660  ZZZ=              0.0000  XYY=              2.4122
  XXY=             -2.9474  XXZ=              0.0000  XZZ=             -0.5888  YZZ=             -0.7062
  YYZ=              0.0000  XYZ=              0.0000
 Hexadecapole moment (field-independent basis, Debye-Ang**3):
 XXXX=           -127.2736 YYYY=            -94.7704 ZZZZ=            -18.0613 XXXY=            -21.8056
 XXXZ=              0.0000 YYYX=            -19.8720 YYYZ=              0.0000 ZZZX=              0.0000
 ZZZY=              0.0000 XXYY=            -35.6459 XXZZ=            -24.4166 YYZZ=            -18.5837
 XXYZ=              0.0000 YYXZ=              0.0000 ZZXY=             -5.9100
 N-N= 1.226597392737D+02 E-N=-9.068905271371D+02  KE= 2.801956989231D+02
 Symmetry A'   KE= 2.663440303349D+02
 Symmetry A"   KE= 1.385166858817D+01
  Exact polarizability:  30.949   4.064  29.889   0.000   0.000  17.651
 Approx polarizability:  24.510   0.430  27.705  -0.000  -0.000  15.534
 No NMR shielding tensors so no spin-rotation constants.
 Leave Link  601 at Sun Mar  6 19:25:24 2022, MaxMem= 16106127360 cpu:               6.4 elap:               0.3
 (Enter /sw/contrib/gaussian/g16/B01/g16/l701.exe)
 ... and contract with generalized density number  2.
 Compute integral second derivatives.
 Leave Link  701 at Sun Mar  6 19:25:25 2022, MaxMem= 16106127360 cpu:               5.7 elap:               0.2
 (Enter /sw/contrib/gaussian/g16/B01/g16/l702.exe)
 L702 exits ... SP integral derivatives will be done elsewhere.
 Leave Link  702 at Sun Mar  6 19:25:25 2022, MaxMem= 16106127360 cpu:               0.8 elap:               0.1
 (Enter /sw/contrib/gaussian/g16/B01/g16/l703.exe)
 Integral derivatives from FoFJK, PRISM(SPDF).
 Compute integral second derivatives, UseDBF=F ICtDFT=           0.
 Calling FoFJK, ICntrl=  10100127 FMM=F ISym2X=1 I1Cent= 0 IOpClX= 0 NMat=1 NMatS=1 NMatT=0.
 FoFJK:  IHMeth= 1 ICntrl=10100127 DoSepK=F KAlg= 0 I1Cent=           0 FoldK=F
 IRaf=         0 NMat=       1 IRICut=       1 DoRegI=T DoRafI=F ISym2E= 1 IDoP0=0 IntGTp=1.
 FoFCou: FMM=F IPFlag=           0 FMFlag=      100000 FMFlg1=         800
         NFxFlg=           0 DoJE=F BraDBF=F KetDBF=F FulRan=T
         wScrn=  0.000000 ICntrl=  10100127 IOpCl=  0 I1Cent=           0 NGrid=           0
         NMat0=    1 NMatS0=      1 NMatT0=    0 NMatD0=    1 NMtDS0=    0 NMtDT0=    0
 Petite list used in FoFCou.
 Leave Link  703 at Sun Mar  6 19:25:41 2022, MaxMem= 16106127360 cpu:             447.7 elap:              16.0
 (Enter /sw/contrib/gaussian/g16/B01/g16/l716.exe)
 Dipole        = 3.84036814D-02-4.36702196D-01 0.00000000D+00
 Polarizability= 3.09486709D+01 4.06410410D+00 2.98889602D+01
                 0.00000000D+00 0.00000000D+00 1.76508784D+01
 Full mass-weighted force constant matrix:
 Low frequencies ---  -32.1697   -0.0011   -0.0008   -0.0003   23.1485   57.2168
 Low frequencies ---  328.8157  396.3984  524.6244
 Diagonal vibrational polarizability:
        7.3374779       9.9614490      18.9491833
 Harmonic frequencies (cm**-1), IR intensities (KM/Mole), Raman scattering
 activities (A**4/AMU), depolarization ratios for plane and unpolarized
 incident light, reduced masses (AMU), force constants (mDyne/A),
 and normal coordinates:
                      1                      2                      3
                     A"                     A'                     A"
 Frequencies --    327.4447               396.3916               524.4527
 Red. masses --      1.5402                 6.9128                 2.9916
 Frc consts  --      0.0973                 0.6400                 0.4848
 IR Inten    --     65.6421                 7.5763                25.2823
  Atom  AN      X      Y      Z        X      Y      Z        X      Y      Z
     1   1    -0.00  -0.00   0.98    -0.73  -0.25  -0.00    -0.00   0.00   0.93
     2   8    -0.00  -0.00  -0.11    -0.32  -0.31   0.00     0.00   0.00   0.06
     3   8    -0.00   0.00   0.11    -0.06   0.09  -0.00     0.00   0.00  -0.19
     4   7     0.00   0.00  -0.10     0.05   0.09   0.00    -0.00  -0.00   0.28
     5   8     0.00   0.00   0.03     0.38   0.16  -0.00    -0.00  -0.00  -0.17
                      4                      5                      6
                     A'                     A'                     A'
 Frequencies --    709.4732               832.6822               968.2671
 Red. masses --     13.2301                11.5688                 9.7538
 Frc consts  --      3.9236                 4.7260                 5.3878
 IR Inten    --    218.4680                30.1370                12.7457
  Atom  AN      X      Y      Z        X      Y      Z        X      Y      Z
     1   1    -0.37  -0.00  -0.00     0.49  -0.17   0.00    -0.63  -0.03   0.00
     2   8    -0.00  -0.07  -0.00     0.51  -0.20  -0.00     0.20  -0.17  -0.00
     3   8     0.37   0.58   0.00    -0.37  -0.02   0.00    -0.36   0.40   0.00
     4   7    -0.41  -0.46  -0.00    -0.42  -0.06   0.00     0.38   0.05  -0.00
     5   8     0.01  -0.10   0.00     0.20   0.28  -0.00    -0.13  -0.28   0.00
                      7                      8                      9
                     A'                     A'                     A'
 Frequencies --   1413.5064              1565.6897              3498.0038
 Red. masses --      1.2734                 7.8909                 1.0640
 Frc consts  --      1.4990                11.3969                 7.6708
 IR Inten    --     78.2988               149.4995                40.8283
  Atom  AN      X      Y      Z        X      Y      Z        X      Y      Z
     1   1     0.97  -0.18   0.00    -0.70   0.14  -0.00     0.13   0.99  -0.00
     2   8    -0.07  -0.05   0.00     0.02   0.02  -0.00    -0.01  -0.06   0.00
     3   8    -0.02   0.06  -0.00    -0.05  -0.06   0.00     0.00  -0.00  -0.00
     4   7     0.06  -0.04   0.00     0.28  -0.45  -0.00    -0.00   0.00  -0.00
     5   8    -0.02   0.03  -0.00    -0.17   0.42   0.00     0.00  -0.00   0.00

 -------------------
 - Thermochemistry -
 -------------------
 Temperature   298.150 Kelvin.  Pressure   1.00000 Atm.
 Atom     1 has atomic number  1 and mass   1.00783
 Atom     2 has atomic number  8 and mass  15.99491
 Atom     3 has atomic number  8 and mass  15.99491
 Atom     4 has atomic number  7 and mass  14.00307
 Atom     5 has atomic number  8 and mass  15.99491
 Molecular mass:    62.99564 amu.
 Principal axes and moments of inertia in atomic units:
                           1         2         3
     Eigenvalues --    84.73410 222.69278 307.42687
           X            0.79758  -0.60321   0.00000
           Y            0.60321   0.79758   0.00000
           Z            0.00000   0.00000   1.00000
 This molecule is an asymmetric top.
 Rotational symmetry number  1.
 Rotational temperatures (Kelvin)      1.02218     0.38894     0.28174
 Rotational constants (GHZ):          21.29888     8.10417     5.87047
 Zero-point vibrational energy      61224.3 (Joules/Mol)
                                   14.63297 (Kcal/Mol)
 Warning -- explicit consideration of   3 degrees of freedom as
           vibrations may cause significant error
 Vibrational temperatures:    471.12   570.32   754.57  1020.77  1198.04
          (Kelvin)           1393.12  2033.72  2252.68  5032.85
 
 Zero-point correction=                           0.023319 (Hartree/Particle)
 Thermal correction to Energy=                    0.027289
 Thermal correction to Enthalpy=                  0.028233
 Thermal correction to Gibbs Free Energy=        -0.002686
 Sum of electronic and zero-point Energies=           -280.431786
 Sum of electronic and thermal Energies=              -280.427816
 Sum of electronic and thermal Enthalpies=            -280.426872
 Sum of electronic and thermal Free Energies=         -280.457791
 
                     E (Thermal)             CV                S
                      KCal/Mol        Cal/Mol-Kelvin    Cal/Mol-Kelvin
 Total                   17.124             12.239             65.075
 Electronic               0.000              0.000              0.000
 Translational            0.889              2.981             38.341
 Rotational               0.889              2.981             23.277
 Vibrational             15.347              6.278              3.458
 Vibration     1          0.711              1.621              1.273
 Vibration     2          0.763              1.478              0.976
 Vibration     3          0.879              1.196              0.600
                       Q            Log10(Q)             Ln(Q)
 Total Bot       0.172022D+02          1.235583          2.845036
 Total V=0       0.915431D+12         11.961626         27.542661
 Vib (Bot)       0.321044D-10        -10.493435        -24.162027
 Vib (Bot)    1  0.571513D+00         -0.242974         -0.559469
 Vib (Bot)    2  0.450831D+00         -0.345986         -0.796663
 Vib (Bot)    3  0.306517D+00         -0.513546         -1.182483
 Vib (V=0)       0.170847D+01          0.232607          0.535598
 Vib (V=0)    1  0.125936D+01          0.100150          0.230603
 Vib (V=0)    2  0.117324D+01          0.069386          0.159767
 Vib (V=0)    3  0.108647D+01          0.036020          0.082938
 Electronic      0.100000D+01          0.000000          0.000000
 Translational   0.196526D+08          7.293420         16.793719
 Rotational      0.272646D+05          4.435599         10.213343
 
                                                                title
                                                             IR Spectrum
 
     3                                                                      1    1                                                   
     4                                                                      5    4               9    8    7     5    3  3           
     9                                                                      6    1               6    3    0     2    9  2           
     8                                                                      6    4               8    3    9     4    6  7           
 
     X                                                                      X    X               X    X    X     X    X  X           
     X                                                                      X    X                    X    X     X       X           
     X                                                                      X    X                    X    X             X           
     X                                                                      X    X                         X             X           
                                                                            X    X                         X             X           
                                                                            X    X                         X             X           
                                                                            X    X                         X                         
                                                                            X                              X                         
                                                                            X                              X                         
                                                                            X                              X                         
                                                                            X                              X                         
                                                                            X                              X                         
                                                                            X                              X                         
                                                                            X                              X                         
                                                                                                           X                         
                                                                                                           X                         
                                                                                                           X                         
                                                                                                           X                         
                                                                                                           X                         
                                                                                                           X                         
 
 ***** Axes restored to original set *****
 -------------------------------------------------------------------
 Center     Atomic                   Forces (Hartrees/Bohr)
 Number     Number              X              Y              Z
 -------------------------------------------------------------------
      1        1           0.004337162   -0.000000000    0.001426266
      2        8          -0.003485918   -0.000000000    0.002081082
      3        8          -0.001203911   -0.000000000   -0.003075096
      4        7          -0.000069108   -0.000000000   -0.000660680
      5        8           0.000421776   -0.000000000    0.000228428
 -------------------------------------------------------------------
 Cartesian Forces:  Max     0.004337162 RMS     0.001805634
 -----------------------------------------------------------------------------------------------
                       Internal Coordinate Forces (Hartree/Bohr or radian)
  Cent   Atom   N1       Length/X         N2         Alpha/Y        N3         Beta/Z          J
 -----------------------------------------------------------------------------------------------
      1  H 
      2  O        1  -0.001426(     1)
      3  O        2  -0.001592(     2)      1  -0.008076(     5)
      4  N        3   0.000557(     3)      2   0.000657(     6)      1   0.000000(     8)     0
      5  O        4  -0.000409(     4)      3   0.000567(     7)      2   0.000000(     9)     0
 -----------------------------------------------------------------------------------------------
 Internal  Forces:  Max     0.008076371 RMS     0.002809228
 Force constants in Cartesian coordinates: 
                1             2             3             4             5 
      1  0.687726D-01
      2  0.000000D+00  0.583871D-02
      3  0.205695D-01  0.000000D+00  0.439701D+00
      4 -0.545394D-01  0.000000D+00 -0.402641D-02  0.283816D+00
      5  0.000000D+00 -0.711330D-03  0.000000D+00  0.000000D+00  0.915973D-02
      6  0.337929D-01  0.000000D+00 -0.423231D+00 -0.109474D-01  0.000000D+00
      7 -0.207904D-01  0.000000D+00 -0.140987D-01 -0.167862D+00  0.000000D+00
      8  0.000000D+00 -0.584593D-02  0.000000D+00  0.000000D+00 -0.174927D-01
      9 -0.434491D-01  0.000000D+00 -0.178437D-01  0.957958D-02  0.000000D+00
     10 -0.334118D-02  0.000000D+00  0.539418D-02 -0.860383D-01  0.000000D+00
     11  0.000000D+00  0.786228D-02  0.000000D+00  0.000000D+00  0.196373D-01
     12 -0.184713D-01  0.000000D+00  0.974810D-02  0.892743D-02  0.000000D+00
     13  0.989836D-02  0.000000D+00 -0.783856D-02  0.246234D-01  0.000000D+00
     14  0.000000D+00 -0.714374D-02  0.000000D+00  0.000000D+00 -0.105929D-01
     15  0.755795D-02  0.000000D+00 -0.837489D-02 -0.353319D-02  0.000000D+00
                6             7             8             9            10 
      6  0.525065D+00
      7 -0.916215D-01  0.295674D+00
      8  0.000000D+00  0.000000D+00  0.407580D-01
      9 -0.100859D+00  0.780600D-01  0.000000D+00  0.319131D+00
     10  0.388655D-01 -0.143342D+00  0.000000D+00 -0.394074D-01  0.536775D+00
     11  0.000000D+00  0.000000D+00 -0.472843D-01  0.000000D+00  0.000000D+00
     12 -0.771589D-02  0.113129D-01  0.000000D+00 -0.254216D-01  0.245659D+00
     13  0.299105D-01  0.363196D-01  0.000000D+00 -0.478302D-02 -0.304054D+00
     14  0.000000D+00  0.000000D+00  0.298649D-01  0.000000D+00  0.000000D+00
     15  0.674009D-02  0.163474D-01  0.000000D+00 -0.175006D+00 -0.250511D+00
               11            12            13            14            15 
     11  0.572901D-01
     12  0.000000D+00  0.463970D+00
     13  0.000000D+00 -0.247428D+00  0.233212D+00
     14 -0.375054D-01  0.000000D+00  0.000000D+00  0.253771D-01
     15  0.000000D+00 -0.440581D+00  0.230139D+00  0.000000D+00  0.617222D+00
 Force constants in internal coordinates: 
                1             2             3             4             5 
      1  0.439701D+00
      2  0.197222D-01  0.254300D+00
      3  0.254088D-02  0.185270D-01  0.208037D+00
      4 -0.111721D-01  0.223388D-01  0.148198D+00  0.720527D+00
      5  0.426394D-01  0.478328D-01 -0.236290D-01  0.214038D-01  0.235804D+00
      6  0.896614D-02  0.198804D-01  0.934009D-01  0.821929D-02 -0.151183D-01
      7  0.587294D-02 -0.712225D-01  0.122107D+00  0.115351D+00 -0.201537D-01
      8  0.000000D+00  0.000000D+00  0.000000D+00  0.000000D+00  0.000000D+00
      9  0.000000D+00  0.000000D+00  0.000000D+00  0.000000D+00  0.000000D+00
                6             7             8             9 
      6  0.511213D+00
      7  0.614691D-01  0.661312D+00
      8  0.000000D+00  0.000000D+00  0.184717D-01
      9  0.000000D+00  0.000000D+00  0.267143D-01  0.106423D+00
 Leave Link  716 at Sun Mar  6 19:25:41 2022, MaxMem= 16106127360 cpu:               1.6 elap:               0.1
 (Enter /sw/contrib/gaussian/g16/B01/g16/l103.exe)

 GradGradGradGradGradGradGradGradGradGradGradGradGradGradGradGradGradGrad
 Berny optimization.
 Search for a local minimum.
 Step number   1 out of a maximum of    2
 All quantities printed in internal units (Hartrees-Bohrs-Radians)
 Second derivative matrix not updated -- analytic derivatives used.
 The second derivative matrix:
                          r1        r2        r3        r4        a1
           r1           0.43970
           r2           0.01972   0.25430
           r3           0.00254   0.01853   0.20804
           r4          -0.01117   0.02234   0.14820   0.72053
           a1           0.04264   0.04783  -0.02363   0.02140   0.23580
           a2           0.00897   0.01988   0.09340   0.00822  -0.01512
           a3           0.00587  -0.07122   0.12211   0.11535  -0.02015
           d1           0.00000   0.00000   0.00000   0.00000   0.00000
           d2           0.00000   0.00000   0.00000   0.00000   0.00000
                          a2        a3        d1        d2
           a2           0.51121
           a3           0.06147   0.66131
           d1           0.00000   0.00000   0.01847
           d2           0.00000   0.00000   0.02671   0.10642
 ITU=  0
     Eigenvalues ---    0.01099   0.11390   0.12371   0.20144   0.26381
     Eigenvalues ---    0.45027   0.50530   0.60635   0.88001
 Angle between quadratic step and forces=  18.24 degrees.
 Linear search not attempted -- first point.
 Variable       Old X    -DE/DX   Delta X   Delta X   Delta X     New X
                                 (Linear)    (Quad)   (Total)
    r1        1.86209  -0.00143   0.00000   0.00012   0.00012   1.86221
    r2        2.69614  -0.00159   0.00000   0.00028   0.00028   2.69642
    r3        2.60992   0.00056   0.00000  -0.00222  -0.00222   2.60770
    r4        2.25782  -0.00041   0.00000   0.00090   0.00090   2.25872
    a1        1.78947  -0.00808   0.00000  -0.03459  -0.03459   1.75489
    a2        1.97463   0.00066   0.00000   0.00064   0.00064   1.97526
    a3        1.99550   0.00057   0.00000   0.00003   0.00003   1.99553
    d1        0.00000   0.00000   0.00000   0.00000   0.00000   0.00000
    d2        0.00000   0.00000   0.00000   0.00000   0.00000   0.00000
         Item               Value     Threshold  Converged?
 Maximum Force            0.008076     0.000450     NO 
 RMS     Force            0.002809     0.000300     NO 
 Maximum Displacement     0.034589     0.001800     NO 
 RMS     Displacement     0.011560     0.001200     NO 
 Predicted change in Energy=-1.387864D-04
                       ----------------------------
                       ! Non-Optimized Parameters !
                       ! (Angstroms and Degrees)  !
 ----------------------                            ----------------------
 !      Name          Value   Derivative information (Atomic Units)     !
 ------------------------------------------------------------------------
 !       r1          0.9854   -DE/DX =   -0.0014                        !
 !       r2          1.4269   -DE/DX =   -0.0016                        !
 !       r3          1.3799   -DE/DX =    0.0006                        !
 !       r4          1.1953   -DE/DX =   -0.0004                        !
 !       a1        100.5475   -DE/DX =   -0.0081                        !
 !       a2        113.1743   -DE/DX =    0.0007                        !
 !       a3        114.3354   -DE/DX =    0.0006                        !
 !       d1          0.0      -DE/DX =    0.0                           !
 !       d2          0.0      -DE/DX =    0.0                           !
 ------------------------------------------------------------------------
 GradGradGradGradGradGradGradGradGradGradGradGradGradGradGradGradGradGrad

 Leave Link  103 at Sun Mar  6 19:25:41 2022, MaxMem= 16106127360 cpu:               2.8 elap:               0.1
 (Enter /sw/contrib/gaussian/g16/B01/g16/l9999.exe)

 ----------------------------------------------------------------------

 Electric dipole moment (input orientation):
 (Debye = 10**-18 statcoulomb cm , SI units = C m)
                  (au)            (Debye)         (10**-30 SI)
   Tot        0.438388D+00      0.111427D+01      0.371680D+01
   x         -0.115673D+00     -0.294011D+00     -0.980714D+00
   y          0.000000D+00      0.000000D+00      0.000000D+00
   z         -0.422852D+00     -0.107478D+01     -0.358509D+01

 Dipole polarizability, Alpha (input orientation).
 (esu units = cm**3 , SI units = C**2 m**2 J**-1)
 Alpha(0;0):
               (au)            (10**-24 esu)      (10**-40 SI)
   iso        0.261628D+02      0.387693D+01      0.431367D+01
   aniso      0.146087D+02      0.216478D+01      0.240864D+01
   xx         0.294886D+02      0.436975D+01      0.486201D+01
   yx         0.000000D+00      0.000000D+00      0.000000D+00
   yy         0.176509D+02      0.261559D+01      0.291024D+01
   zx        -0.399153D+01     -0.591484D+00     -0.658114D+00
   zy         0.000000D+00      0.000000D+00      0.000000D+00
   zz         0.313491D+02      0.464545D+01      0.516876D+01

 ----------------------------------------------------------------------

 Dipole orientation:
     1         -0.00000000          0.00000000          0.00000000
     8         -0.49133053          0.00000000         -1.79610157
     8          1.89299815         -0.00000000         -3.05473414
     7          3.92031732         -0.00000000         -1.41106926
     8          3.34738592          0.00000000          0.77285248

 Electric dipole moment (dipole orientation):
 (Debye = 10**-18 statcoulomb cm , SI units = C m)
                  (au)            (Debye)         (10**-30 SI)
   Tot        0.438388D+00      0.111427D+01      0.371680D+01
   x          0.000000D+00      0.000000D+00      0.000000D+00
   y          0.000000D+00      0.000000D+00      0.000000D+00
   z          0.438388D+00      0.111427D+01      0.371680D+01

 Dipole polarizability, Alpha (dipole orientation).
 (esu units = cm**3 , SI units = C**2 m**2 J**-1)
 Alpha(0;0):
               (au)            (10**-24 esu)      (10**-40 SI)
   iso        0.261628D+02      0.387693D+01      0.431367D+01
   aniso      0.146087D+02      0.216478D+01      0.240864D+01
   xx         0.316498D+02      0.469002D+01      0.521836D+01
   yx         0.000000D+00      0.000000D+00      0.000000D+00
   yy         0.176509D+02      0.261559D+01      0.291024D+01
   zx         0.390925D+01      0.579291D+00      0.644548D+00
   zy         0.000000D+00      0.000000D+00      0.000000D+00
   zz         0.291878D+02      0.432518D+01      0.481242D+01

 ----------------------------------------------------------------------
 1\1\GINC-N2219\Freq\RMP2-FC\Aug-CC-pVTZ\H1N1O3\CGAVINH\06-Mar-2022\1\\
 #p freq mp2/aug-cc-pvtz density=current\\title\\0,1\H\O,1,r1\O,2,r2,1,
 a1\N,3,r3,2,a2,1,d1,0\O,4,r4,3,a3,2,d2,0\\r1=0.98537664\r2=1.42673666\
 r3=1.38110764\r4=1.19478846\a1=102.52935733\a2=113.13777052\a3=114.333
 92022\d1=0.\d2=0.\\Version=ES64L-G16RevB.01\State=1-A'\HF=-279.5066718
 \MP2=-280.4551047\RMSD=4.352e-09\RMSF=1.806e-03\ZeroPoint=0.0233191\Th
 ermal=0.0272889\Dipole=-0.1156727,0.,-0.4228516\DipoleDeriv=0.3122576,
 0.,0.0448287,0.,0.3025126,0.,-0.0078963,0.,0.196391,-0.5305105,0.,0.26
 36,0.,-0.2586519,0.,-0.1305971,0.,-0.1164608,-0.02651,0.,0.3705002,0.,
 -0.008851,0.,0.4769021,0.,-0.893776,0.2287546,0.,-0.1910662,0.,0.01197
 73,0.,-0.7199832,0.,1.6871368,0.0160084,0.,-0.4878627,0.,-0.046987,0.,
 0.3815745,0.,-0.8732909\Polar=29.4885601,0.,17.6508784,-3.9915302,0.,3
 1.349071\Quadrupole=0.1171428,0.5840809,-0.7012238,0.,1.4811805,0.\PG=
 CS [SG(H1N1O3)]\NImag=0\\0.06877256,0.,0.00583871,0.02056949,0.,0.4397
 0106,-0.05453936,0.,-0.00402641,0.28381589,0.,-0.00071133,0.,0.,0.0091
 5973,0.03379292,0.,-0.42323052,-0.01094741,0.,0.52506536,-0.02079039,0
 .,-0.01409870,-0.16786167,0.,-0.09162151,0.29567409,0.,-0.00584593,0.,
 0.,-0.01749273,0.,0.,0.04075803,-0.04344909,0.,-0.01784375,0.00957958,
 0.,-0.10085905,0.07805995,0.,0.31913059,-0.00334118,0.,0.00539418,-0.0
 8603826,0.,0.03886547,-0.14334160,0.,-0.03940742,0.53677473,0.,0.00786
 228,0.,0.,0.01963727,0.,0.,-0.04728431,0.,0.,0.05729012,-0.01847126,0.
 ,0.00974810,0.00892743,0.,-0.00771589,0.01131286,0.,-0.02542160,0.2456
 5861,0.,0.46397006,0.00989836,0.,-0.00783856,0.02462339,0.,0.02991053,
 0.03631957,0.,-0.00478302,-0.30405369,0.,-0.24742764,0.23321237,0.,-0.
 00714374,0.,0.,-0.01059294,0.,0.,0.02986494,0.,0.,-0.03750536,0.,0.,0.
 02537710,0.00755795,0.,-0.00837489,-0.00353319,0.,0.00674009,0.0163473
 9,0.,-0.17500620,-0.25051085,0.,-0.44058068,0.23013869,0.,0.61722168\\
 -0.00433716,0.,-0.00142627,0.00348592,0.,-0.00208108,0.00120391,0.,0.0
 0307510,0.00006911,0.,0.00066068,-0.00042178,0.,-0.00022843\\\@


 IF AT FIRST YOU DON'T SUCCEED, TRY, TRY AGAIN.
 THEN GIVE UP;
 THERE'S NO USE BEING A DAMN FOOL ABOUT IT.

                                 -- W. C. FIELDS
 Job cpu time:       0 days  2 hours  0 minutes 48.1 seconds.
 Elapsed time:       0 days  0 hours  4 minutes 22.1 seconds.
 File lengths (MBytes):  RWF=   7239 Int=      0 D2E=      0 Chk=      8 Scr=      1
 Normal termination of Gaussian 16 at Sun Mar  6 19:25:42 2022.
