title                                                                   
Freq      RMP2-FC                                                     Aug-CC-pVTZ         
Number of atoms                            I                5
Info1-9                                    I   N=           9
          33          24           0           0           0         100
           6           2           1
Full Title                                 C   N=           1
title       
Route                                      C   N=           4
#p freq mp2/aug-cc-pvtz density=current         
Charge                                     I                0
Multiplicity                               I                1
Number of electrons                        I               32
Number of alpha electrons                  I               16
Number of beta electrons                   I               16
Number of basis functions                  I              207
Number of independent functions            I              207
Number of point charges in /Mol/           I                0
Number of translation vectors              I                0
Atomic numbers                             I   N=           5
           1           8           8           7           8
Nuclear charges                            R   N=           5
  1.00000000E+00  8.00000000E+00  8.00000000E+00  7.00000000E+00  8.00000000E+00
Current cartesian coordinates              R   N=          15
  2.09069729E+00 -1.15543225E+00  0.00000000E+00  2.48666371E+00  6.91721814E-01
  0.00000000E+00 -1.15896470E-16  1.73368284E+00  0.00000000E+00 -1.87337402E+00
 -8.34927355E-02  0.00000000E+00 -1.10879861E+00 -2.20791948E+00  0.00000000E+00
Number of symbols in /Mol/                 I                0
Force Field                                I                0
Atom Types                                 C   N=           5
                                                            
Int Atom Types                             I   N=           5
           0           0           0           0           0
MM charges                                 R   N=           5
  0.00000000E+00  0.00000000E+00  0.00000000E+00  0.00000000E+00  0.00000000E+00
Integer atomic weights                     I   N=           5
           1          16          16          14          16
Real atomic weights                        R   N=           5
  1.00782504E+00  1.59949146E+01  1.59949146E+01  1.40030740E+01  1.59949146E+01
Atom fragment info                         I   N=           5
           0           0           0           0           0
Atom residue num                           I   N=           5
           0           0           0           0           0
Nuclear spins                              I   N=           5
           1           0           0           2           0
Nuclear ZEff                               R   N=           5
 -1.00000000E+00 -5.60000000E+00 -5.60000000E+00 -4.55000000E+00 -5.60000000E+00
Nuclear ZNuc                               R   N=           5
  1.00000000E+00  8.00000000E+00  8.00000000E+00  7.00000000E+00  8.00000000E+00
Nuclear QMom                               R   N=           5
  0.00000000E+00  0.00000000E+00  0.00000000E+00  2.04400000E+00  0.00000000E+00
Nuclear GFac                               R   N=           5
  2.79284600E+00  0.00000000E+00  0.00000000E+00  4.03761000E-01  0.00000000E+00
MicOpt                                     I   N=           5
          -1          -1          -1          -1          -1
Number of residues                         I                0
Number of secondary structures             I                0
SymInf integers                            I   N=          26
           1           2           1           1           1           1
           1          -1           0           0           0           0
           0           0           0           0           0           0
           0           0           0           0           0           0
           0           0
RotTr to input orientation                 R   N=          12
 -9.77786393E-01  0.00000000E+00  2.09603840E-01  2.09603840E-01  0.00000000E+00
  9.77786393E-01  0.00000000E+00  1.00000000E+00  0.00000000E+00  2.28643840E+00
  0.00000000E+00  6.91547749E-01
Number of contracted shells                I               65
Number of primitive shells                 I              119
Pure/Cartesian d shells                    I                0
Pure/Cartesian f shells                    I                0
Highest angular momentum                   I                3
Largest degree of contraction              I                7
Shell types                                I   N=          65
           0           0           0           0           1           1
           1          -2          -2           0           0           0
           0           0           1           1           1           1
          -2          -2          -2          -3          -3           0
           0           0           0           0           1           1
           1           1          -2          -2          -2          -3
          -3           0           0           0           0           0
           1           1           1           1          -2          -2
          -2          -3          -3           0           0           0
           0           0           1           1           1           1
          -2          -2          -2          -3          -3
Number of primitives per shell             I   N=          65
           3           1           1           1           1           1
           1           1           1           7           6           1
           1           1           3           1           1           1
           1           1           1           1           1           7
           6           1           1           1           3           1
           1           1           1           1           1           1
           1           7           6           1           1           1
           3           1           1           1           1           1
           1           1           1           7           6           1
           1           1           3           1           1           1
           1           1           1           1           1
Shell to atom map                          I   N=          65
           1           1           1           1           1           1
           1           1           1           2           2           2
           2           2           2           2           2           2
           2           2           2           2           2           3
           3           3           3           3           3           3
           3           3           3           3           3           3
           3           4           4           4           4           4
           4           4           4           4           4           4
           4           4           4           5           5           5
           5           5           5           5           5           5
           5           5           5           5           5
Primitive exponents                        R   N=         119
  3.38700000E+01  5.09500000E+00  1.15900000E+00  3.25800000E-01  1.02700000E-01
  2.52600000E-02  1.40700000E+00  3.88000000E-01  1.02000000E-01  1.05700000E+00
  2.47000000E-01  1.53300000E+04  2.29900000E+03  5.22400000E+02  1.47300000E+02
  4.75500000E+01  1.67600000E+01  6.20700000E+00  5.22400000E+02  1.47300000E+02
  4.75500000E+01  1.67600000E+01  6.20700000E+00  6.88200000E-01  1.75200000E+00
  2.38400000E-01  7.37600000E-02  3.44600000E+01  7.74900000E+00  2.28000000E+00
  7.15600000E-01  2.14000000E-01  5.97400000E-02  2.31400000E+00  6.45000000E-01
  2.14000000E-01  1.42800000E+00  5.00000000E-01  1.53300000E+04  2.29900000E+03
  5.22400000E+02  1.47300000E+02  4.75500000E+01  1.67600000E+01  6.20700000E+00
  5.22400000E+02  1.47300000E+02  4.75500000E+01  1.67600000E+01  6.20700000E+00
  6.88200000E-01  1.75200000E+00  2.38400000E-01  7.37600000E-02  3.44600000E+01
  7.74900000E+00  2.28000000E+00  7.15600000E-01  2.14000000E-01  5.97400000E-02
  2.31400000E+00  6.45000000E-01  2.14000000E-01  1.42800000E+00  5.00000000E-01
  1.14200000E+04  1.71200000E+03  3.89300000E+02  1.10000000E+02  3.55700000E+01
  1.25400000E+01  4.64400000E+00  3.89300000E+02  1.10000000E+02  3.55700000E+01
  1.25400000E+01  4.64400000E+00  5.11800000E-01  1.29300000E+00  1.78700000E-01
  5.76000000E-02  2.66300000E+01  5.94800000E+00  1.74200000E+00  5.55000000E-01
  1.72500000E-01  4.91000000E-02  1.65400000E+00  4.69000000E-01  1.51000000E-01
  1.09300000E+00  3.64000000E-01  1.53300000E+04  2.29900000E+03  5.22400000E+02
  1.47300000E+02  4.75500000E+01  1.67600000E+01  6.20700000E+00  5.22400000E+02
  1.47300000E+02  4.75500000E+01  1.67600000E+01  6.20700000E+00  6.88200000E-01
  1.75200000E+00  2.38400000E-01  7.37600000E-02  3.44600000E+01  7.74900000E+00
  2.28000000E+00  7.15600000E-01  2.14000000E-01  5.97400000E-02  2.31400000E+00
  6.45000000E-01  2.14000000E-01  1.42800000E+00  5.00000000E-01
Contraction coefficients                   R   N=         119
  2.54948632E-02  1.90362766E-01  8.52162022E-01  1.00000000E+00  1.00000000E+00
  1.00000000E+00  1.00000000E+00  1.00000000E+00  1.00000000E+00  1.00000000E+00
  1.00000000E+00  5.19808943E-04  4.02025621E-03  2.07128267E-02  8.10105536E-02
  2.35962985E-01  4.42653446E-01  3.57064423E-01 -4.42115008E-05 -1.22591041E-03
 -1.05517725E-02 -6.74452633E-02 -1.71198607E-01  1.07329856E+00  1.00000000E+00
  1.00000000E+00  1.00000000E+00  4.11634896E-02  2.57762836E-01  8.02419274E-01
  1.00000000E+00  1.00000000E+00  1.00000000E+00  1.00000000E+00  1.00000000E+00
  1.00000000E+00  1.00000000E+00  1.00000000E+00  5.19808943E-04  4.02025621E-03
  2.07128267E-02  8.10105536E-02  2.35962985E-01  4.42653446E-01  3.57064423E-01
 -4.42115008E-05 -1.22591041E-03 -1.05517725E-02 -6.74452633E-02 -1.71198607E-01
  1.07329856E+00  1.00000000E+00  1.00000000E+00  1.00000000E+00  4.11634896E-02
  2.57762836E-01  8.02419274E-01  1.00000000E+00  1.00000000E+00  1.00000000E+00
  1.00000000E+00  1.00000000E+00  1.00000000E+00  1.00000000E+00  1.00000000E+00
  5.34563860E-04  4.13435660E-03  2.12335358E-02  8.25006224E-02  2.38138871E-01
  4.42551547E-01  3.53757422E-01 -4.89867350E-05 -1.19527323E-03 -1.03490714E-02
 -6.48680190E-02 -1.71552477E-01  1.07289568E+00  1.00000000E+00  1.00000000E+00
  1.00000000E+00  3.98072123E-02  2.49002660E-01  8.10479727E-01  1.00000000E+00
  1.00000000E+00  1.00000000E+00  1.00000000E+00  1.00000000E+00  1.00000000E+00
  1.00000000E+00  1.00000000E+00  5.19808943E-04  4.02025621E-03  2.07128267E-02
  8.10105536E-02  2.35962985E-01  4.42653446E-01  3.57064423E-01 -4.42115008E-05
 -1.22591041E-03 -1.05517725E-02 -6.74452633E-02 -1.71198607E-01  1.07329856E+00
  1.00000000E+00  1.00000000E+00  1.00000000E+00  4.11634896E-02  2.57762836E-01
  8.02419274E-01  1.00000000E+00  1.00000000E+00  1.00000000E+00  1.00000000E+00
  1.00000000E+00  1.00000000E+00  1.00000000E+00  1.00000000E+00
Coordinates of each shell                  R   N=         195
  2.09069729E+00 -1.15543225E+00  0.00000000E+00  2.09069729E+00 -1.15543225E+00
  0.00000000E+00  2.09069729E+00 -1.15543225E+00  0.00000000E+00  2.09069729E+00
 -1.15543225E+00  0.00000000E+00  2.09069729E+00 -1.15543225E+00  0.00000000E+00
  2.09069729E+00 -1.15543225E+00  0.00000000E+00  2.09069729E+00 -1.15543225E+00
  0.00000000E+00  2.09069729E+00 -1.15543225E+00  0.00000000E+00  2.09069729E+00
 -1.15543225E+00  0.00000000E+00  2.48666371E+00  6.91721814E-01  0.00000000E+00
  2.48666371E+00  6.91721814E-01  0.00000000E+00  2.48666371E+00  6.91721814E-01
  0.00000000E+00  2.48666371E+00  6.91721814E-01  0.00000000E+00  2.48666371E+00
  6.91721814E-01  0.00000000E+00  2.48666371E+00  6.91721814E-01  0.00000000E+00
  2.48666371E+00  6.91721814E-01  0.00000000E+00  2.48666371E+00  6.91721814E-01
  0.00000000E+00  2.48666371E+00  6.91721814E-01  0.00000000E+00  2.48666371E+00
  6.91721814E-01  0.00000000E+00  2.48666371E+00  6.91721814E-01  0.00000000E+00
  2.48666371E+00  6.91721814E-01  0.00000000E+00  2.48666371E+00  6.91721814E-01
  0.00000000E+00  2.48666371E+00  6.91721814E-01  0.00000000E+00  6.81258193E-18
  1.73368284E+00  0.00000000E+00  6.81258193E-18  1.73368284E+00  0.00000000E+00
  6.81258193E-18  1.73368284E+00  0.00000000E+00  6.81258193E-18  1.73368284E+00
  0.00000000E+00  6.81258193E-18  1.73368284E+00  0.00000000E+00  6.81258193E-18
  1.73368284E+00  0.00000000E+00  6.81258193E-18  1.73368284E+00  0.00000000E+00
  6.81258193E-18  1.73368284E+00  0.00000000E+00  6.81258193E-18  1.73368284E+00
  0.00000000E+00  6.81258193E-18  1.73368284E+00  0.00000000E+00  6.81258193E-18
  1.73368284E+00  0.00000000E+00  6.81258193E-18  1.73368284E+00  0.00000000E+00
  6.81258193E-18  1.73368284E+00  0.00000000E+00  6.81258193E-18  1.73368284E+00
  0.00000000E+00 -1.87337402E+00 -8.34927355E-02  0.00000000E+00 -1.87337402E+00
 -8.34927355E-02  0.00000000E+00 -1.87337402E+00 -8.34927355E-02  0.00000000E+00
 -1.87337402E+00 -8.34927355E-02  0.00000000E+00 -1.87337402E+00 -8.34927355E-02
  0.00000000E+00 -1.87337402E+00 -8.34927355E-02  0.00000000E+00 -1.87337402E+00
 -8.34927355E-02  0.00000000E+00 -1.87337402E+00 -8.34927355E-02  0.00000000E+00
 -1.87337402E+00 -8.34927355E-02  0.00000000E+00 -1.87337402E+00 -8.34927355E-02
  0.00000000E+00 -1.87337402E+00 -8.34927355E-02  0.00000000E+00 -1.87337402E+00
 -8.34927355E-02  0.00000000E+00 -1.87337402E+00 -8.34927355E-02  0.00000000E+00
 -1.87337402E+00 -8.34927355E-02  0.00000000E+00 -1.10879861E+00 -2.20791948E+00
  0.00000000E+00 -1.10879861E+00 -2.20791948E+00  0.00000000E+00 -1.10879861E+00
 -2.20791948E+00  0.00000000E+00 -1.10879861E+00 -2.20791948E+00  0.00000000E+00
 -1.10879861E+00 -2.20791948E+00  0.00000000E+00 -1.10879861E+00 -2.20791948E+00
  0.00000000E+00 -1.10879861E+00 -2.20791948E+00  0.00000000E+00 -1.10879861E+00
 -2.20791948E+00  0.00000000E+00 -1.10879861E+00 -2.20791948E+00  0.00000000E+00
 -1.10879861E+00 -2.20791948E+00  0.00000000E+00 -1.10879861E+00 -2.20791948E+00
  0.00000000E+00 -1.10879861E+00 -2.20791948E+00  0.00000000E+00 -1.10879861E+00
 -2.20791948E+00  0.00000000E+00 -1.10879861E+00 -2.20791948E+00  0.00000000E+00
Num ILSW                                   I              100
ILSW                                       I   N=         100
           0           0           0           0           2           0
           0           0           0           0           0          -1
           5           0           0           0           2           0
           0           0           0           0           1           0
           1           0           0           0           0           0
           0           0      100000           0          -1           0
           0           0           0           0           0           0
           0           0           0           1           1           0
           0 -2000000000           1           0           0           0
           0           0           4          52           0           0
           0           0           0           0           0           0
           0           0           0           5           4           1
           0           0           0           0           0           0
           0           0           0           0           0           0
           0           0           0           0           0           0
           0           0           0           0           0           0
           0           0           0           0
Num RLSW                                   I               52
RLSW                                       R   N=          52
  1.00000000E+00  1.00000000E+00  1.00000000E+00  1.00000000E+00  1.00000000E+00
  0.00000000E+00  0.00000000E+00  1.00000000E+00  0.00000000E+00  0.00000000E+00
  0.00000000E+00  0.00000000E+00  1.00000000E+00  0.00000000E+00  0.00000000E+00
  0.00000000E+00  0.00000000E+00  1.00000000E+00  0.00000000E+00  0.00000000E+00
  0.00000000E+00  0.00000000E+00  1.00000000E+00  0.00000000E+00  0.00000000E+00
  0.00000000E+00  0.00000000E+00  1.00000000E+00  0.00000000E+00  0.00000000E+00
  0.00000000E+00  0.00000000E+00  1.00000000E+00  0.00000000E+00  0.00000000E+00
  0.00000000E+00  0.00000000E+00  0.00000000E+00  1.00000000E+00  1.00000000E+00
  0.00000000E+00  1.00000000E+00  0.00000000E+00  0.00000000E+00  0.00000000E+00
  0.00000000E+00  0.00000000E+00  0.00000000E+00  0.00000000E+00  0.00000000E+00
  0.00000000E+00  0.00000000E+00
MxBond                                     I                2
NBond                                      I   N=           5
           1           2           2           2           1
IBond                                      I   N=          10
           2           0           1           3           2           4
           3           5           4           0
RBond                                      R   N=          10
  1.00000000E+00  0.00000000E+00  1.00000000E+00  1.00000000E+00  1.00000000E+00
  1.00000000E+00  1.00000000E+00  2.00000000E+00  2.00000000E+00  0.00000000E+00
Virial Ratio                               R      2.002310737375742E+00
SCF Energy                                 R     -2.795054142610667E+02
MP2 Energy                                 R     -2.804550868706695E+02
Total Energy                               R     -2.804550868706695E+02
Post-SCF wavefunction norm                 R      1.584135267370425E+00
RMS Force                                  R      4.008689916532322E-03
RMS Density                                R      4.624229782560180E-09
NImag                                      I                0
Job Status                                 I                1
Nuclear derivative order                   I                2
External E-field                           R   N=          35
  0.00000000E+00  0.00000000E+00  0.00000000E+00  0.00000000E+00  0.00000000E+00
  0.00000000E+00  0.00000000E+00  0.00000000E+00  0.00000000E+00  0.00000000E+00
  0.00000000E+00  0.00000000E+00  0.00000000E+00  0.00000000E+00  0.00000000E+00
  0.00000000E+00  0.00000000E+00  0.00000000E+00  0.00000000E+00  0.00000000E+00
  0.00000000E+00  0.00000000E+00  0.00000000E+00  0.00000000E+00  0.00000000E+00
  0.00000000E+00  0.00000000E+00  0.00000000E+00  0.00000000E+00  0.00000000E+00
  0.00000000E+00  0.00000000E+00  0.00000000E+00  0.00000000E+00  0.00000000E+00
IOpCl                                      I                0
IROHF                                      I                0
Alpha Orbital Energies                     R   N=         207
 -2.07195920E+01 -2.06874276E+01 -2.06687251E+01 -1.58260247E+01 -1.64405812E+00
 -1.50397104E+00 -1.29120365E+00 -9.59504772E-01 -8.34072706E-01 -7.58756250E-01
 -7.39741346E-01 -6.34117224E-01 -6.18326252E-01 -6.18072892E-01 -5.04859532E-01
 -4.96905523E-01  3.49562831E-02  6.01800677E-02  9.52002513E-02  1.00335521E-01
  1.19825037E-01  1.22637876E-01  1.49065414E-01  1.51924665E-01  1.77763011E-01
  1.80396618E-01  1.89821899E-01  2.10830058E-01  2.16556876E-01  2.43012778E-01
  2.46392016E-01  2.69035969E-01  3.10868937E-01  3.16391761E-01  3.38279026E-01
  3.43923911E-01  3.47031469E-01  3.92606522E-01  4.46817860E-01  4.87500027E-01
  5.04964761E-01  5.18432666E-01  5.44166468E-01  5.61223953E-01  5.98525870E-01
  6.19263257E-01  6.38559191E-01  6.89614445E-01  7.17796205E-01  7.23810628E-01
  7.43011279E-01  7.64071895E-01  7.67452737E-01  7.95566318E-01  8.06348607E-01
  8.38597277E-01  8.43308840E-01  8.51943274E-01  8.85587347E-01  9.08508436E-01
  9.32094264E-01  9.47622320E-01  9.53672535E-01  1.01809990E+00  1.03153199E+00
  1.06354290E+00  1.06515735E+00  1.09437585E+00  1.14383309E+00  1.15560774E+00
  1.16970641E+00  1.22329590E+00  1.22744898E+00  1.24636563E+00  1.35187660E+00
  1.35812886E+00  1.37177020E+00  1.46896277E+00  1.48006664E+00  1.50503050E+00
  1.53969287E+00  1.59466340E+00  1.59736138E+00  1.60585344E+00  1.62916100E+00
  1.69625656E+00  1.73962456E+00  1.80023680E+00  1.82958840E+00  1.88838549E+00
  1.89487191E+00  1.93078834E+00  1.97959531E+00  1.98307079E+00  2.05144059E+00
  2.12316069E+00  2.12811035E+00  2.16287725E+00  2.18769516E+00  2.24392463E+00
  2.26096429E+00  2.29400568E+00  2.35269223E+00  2.36846906E+00  2.38406296E+00
  2.40184059E+00  2.43450501E+00  2.47158252E+00  2.47794326E+00  2.52983683E+00
  2.53647181E+00  2.55039081E+00  2.55817302E+00  2.61565371E+00  2.63243500E+00
  2.67291972E+00  2.67477347E+00  2.75574145E+00  2.80954281E+00  2.82060765E+00
  2.83878392E+00  2.91886598E+00  2.98559193E+00  3.04875156E+00  3.05120651E+00
  3.11519459E+00  3.11799373E+00  3.17173003E+00  3.21449085E+00  3.30996738E+00
  3.32992311E+00  3.35935469E+00  3.47555285E+00  3.67822939E+00  3.86856584E+00
  3.91633470E+00  4.17377683E+00  4.21904721E+00  4.22402354E+00  4.26783797E+00
  4.36895087E+00  4.49931759E+00  4.52350351E+00  4.55490501E+00  4.59284381E+00
  4.69502553E+00  4.79453101E+00  4.89672636E+00  4.91388474E+00  4.92803788E+00
  4.99541737E+00  5.00470101E+00  5.10474407E+00  5.12189672E+00  5.16313107E+00
  5.22916148E+00  5.24518451E+00  5.31294999E+00  5.34230754E+00  5.34817992E+00
  5.54617071E+00  5.64492862E+00  5.70582615E+00  5.88875887E+00  5.99517324E+00
  6.26453390E+00  6.30075537E+00  6.36268208E+00  6.37535781E+00  6.59629691E+00
  6.65823949E+00  6.66115825E+00  6.68913656E+00  6.72674023E+00  6.79628247E+00
  6.80399782E+00  6.85046566E+00  6.96823734E+00  7.00890981E+00  7.06399492E+00
  7.06903296E+00  7.13575133E+00  7.17466320E+00  7.17598480E+00  7.19011183E+00
  7.24241348E+00  7.24379445E+00  7.27242394E+00  7.34934058E+00  7.39330581E+00
  7.42032264E+00  7.44212496E+00  7.45919992E+00  7.55863766E+00  7.66307246E+00
  7.66698975E+00  7.78430293E+00  7.87684131E+00  7.95226682E+00  8.06636102E+00
  8.29577236E+00  8.48725213E+00  8.64711380E+00  1.36139764E+01  1.46573020E+01
  1.50119259E+01  1.57704575E+01
Alpha MO coefficients                      R   N=       42849
  6.23923897E-05 -2.27596633E-05 -1.05207160E-03  1.34645851E-05 -5.19427390E-05
  4.22891481E-05  0.00000000E+00 -7.30204184E-05 -2.97384604E-04  0.00000000E+00
  1.96642585E-06 -3.51699849E-04  0.00000000E+00  4.19528412E-05  0.00000000E+00
  0.00000000E+00 -2.16198577E-05  1.04775650E-05  2.21672250E-04  0.00000000E+00
  0.00000000E+00 -2.33050581E-05 -1.89496836E-04  3.11513688E-03 -9.46034435E-05
 -9.81425483E-05  3.54044008E-03  2.45054244E-03  1.02597435E-04 -5.28432746E-05
  0.00000000E+00 -7.30962244E-04  2.80284997E-04  0.00000000E+00 -2.01301795E-03
  1.11515239E-03  0.00000000E+00 -5.35464129E-04  4.63662312E-05  0.00000000E+00
  1.98375452E-05  0.00000000E+00  0.00000000E+00 -8.88120195E-06  4.35564416E-05
 -4.42584981E-04  0.00000000E+00  0.00000000E+00  4.23486915E-04 -6.55704723E-04
 -3.61468323E-04  0.00000000E+00  0.00000000E+00  5.47337102E-04 -7.27534309E-04
  0.00000000E+00  7.38497238E-05 -5.14221951E-05  0.00000000E+00  0.00000000E+00
 -2.72425894E-05  1.08605133E-04  0.00000000E+00  2.08118907E-04 -5.33504631E-05
  0.00000000E+00  0.00000000E+00 -1.64082703E-04  2.99385041E-04  9.76904144E-01
 -9.17409416E-03  4.34055692E-02  4.94817875E-04 -2.20804144E-03  4.45828787E-04
 -2.14722621E-03  0.00000000E+00 -3.14195612E-04  2.25281225E-03  0.00000000E+00
 -2.32370478E-03 -4.88854163E-04  0.00000000E+00 -2.24930528E-04  9.47076757E-05
  0.00000000E+00  6.88305108E-06  0.00000000E+00  0.00000000E+00 -4.49527121E-06
  3.78968783E-05  8.26210863E-04  0.00000000E+00  0.00000000E+00 -4.73719912E-04
 -1.75534030E-04 -1.41272212E-04  0.00000000E+00  0.00000000E+00 -5.53577195E-04
  3.59485903E-04  0.00000000E+00 -6.93185434E-06 -7.94810401E-05  0.00000000E+00
  0.00000000E+00 -9.11135864E-06  4.78961638E-05  0.00000000E+00  9.31492571E-05
  1.86457961E-06  0.00000000E+00  0.00000000E+00 -3.37790587E-04  3.78365487E-04
  1.04201336E-04  4.56457263E-04 -3.23808290E-04 -8.65703256E-04  3.54540549E-04
 -4.43779891E-05 -1.00108493E-04  0.00000000E+00  6.97504346E-04  1.11098859E-03
  0.00000000E+00 -7.74494461E-04 -6.42360605E-04  0.00000000E+00  1.98277857E-04
  2.13852826E-04  0.00000000E+00 -5.25421745E-05  0.00000000E+00  0.00000000E+00
  1.90218753E-05  9.33867164E-05 -4.15609748E-04  0.00000000E+00  0.00000000E+00
  4.10811681E-05  1.08192785E-03  2.77101869E-05  0.00000000E+00  0.00000000E+00
 -3.18190641E-04  3.30771215E-05  0.00000000E+00 -7.87320101E-05 -1.13616822E-04
  0.00000000E+00  0.00000000E+00 -9.64282062E-05  1.06643395E-04  0.00000000E+00
 -1.24484514E-04  4.64340995E-05  0.00000000E+00  0.00000000E+00  1.35720794E-05
  5.21782565E-04 -7.13889453E-04  4.64706099E-05 -7.08237475E-05  2.20564690E-04
 -1.82791910E-04 -2.93306111E-05 -4.14252736E-05  0.00000000E+00  1.71113614E-04
  2.53103763E-04  0.00000000E+00  5.07086725E-04  3.33203825E-04  0.00000000E+00
 -2.23582608E-04 -6.23235170E-05  0.00000000E+00 -1.29459779E-05  0.00000000E+00
  0.00000000E+00  3.48150400E-06  1.51947352E-05 -2.21722454E-06  0.00000000E+00
  0.00000000E+00 -1.64859986E-04  1.03332485E-05 -1.96488711E-05  0.00000000E+00
  0.00000000E+00 -1.79515984E-04 -4.90413146E-05  0.00000000E+00 -6.10330701E-06
 -9.10642619E-06  0.00000000E+00  0.00000000E+00 -2.11778431E-05  9.56322400E-06
  0.00000000E+00  4.08649130E-05  6.07084019E-05  0.00000000E+00  0.00000000E+00
  1.55602122E-04 -1.04402829E-04  3.90267360E-05  5.94152850E-05 -9.40329682E-05
 -2.92866489E-05  1.96515724E-05  1.34464295E-05  0.00000000E+00  2.36972920E-04
  5.12849957E-05  0.00000000E+00  1.25434733E-04  2.40891773E-05  0.00000000E+00
  1.24029332E-05  0.00000000E+00  0.00000000E+00 -1.13289455E-05  1.79225028E-05
  1.94270845E-05  0.00000000E+00  0.00000000E+00 -8.86320484E-05  6.90805878E-05
 -2.67853330E-04  2.93686690E-05 -1.55724801E-05 -5.33865512E-04  1.48429085E-04
  7.35543396E-06  1.37448549E-05  0.00000000E+00 -1.55849776E-07 -4.44016804E-05
  0.00000000E+00  1.66968313E-04  1.38719212E-04  0.00000000E+00 -4.47866254E-05
  5.35055572E-05  0.00000000E+00 -1.59362714E-06  0.00000000E+00  0.00000000E+00
 -8.53386217E-06 -1.15066823E-05  2.18087745E-05  0.00000000E+00  0.00000000E+00
  5.03764276E-05  1.07840803E-04  6.26486500E-05  0.00000000E+00  0.00000000E+00
 -2.46767608E-05 -7.44951622E-05  0.00000000E+00  7.63220026E-06  1.01995807E-05
  0.00000000E+00  0.00000000E+00 -1.15732335E-06 -2.50647032E-05  0.00000000E+00
 -1.36158738E-05 -3.76291904E-05  0.00000000E+00  0.00000000E+00 -2.04205310E-06
 -1.96844388E-05  7.42226848E-04  2.35048224E-05 -1.87568317E-05  2.97017108E-04
 -3.90889882E-04  1.65247050E-05  2.73219963E-05  0.00000000E+00 -6.59071100E-05
 -1.54074449E-04  0.00000000E+00  1.36048684E-04 -2.03692759E-04  0.00000000E+00
 -1.58892044E-04  1.41119759E-04  0.00000000E+00 -4.11716181E-06  0.00000000E+00
  0.00000000E+00 -2.95458382E-05 -9.94979416E-06 -5.13205397E-05  0.00000000E+00
  0.00000000E+00  7.97107602E-05  1.22583867E-04 -6.44216105E-05  0.00000000E+00
  0.00000000E+00  4.11698103E-05  3.44376023E-05  0.00000000E+00  2.91537950E-06
  3.36929208E-06  0.00000000E+00  0.00000000E+00 -7.98404403E-06 -2.27001684E-06
  0.00000000E+00  4.54769433E-06 -2.51314142E-05  0.00000000E+00  0.00000000E+00
  9.63234468E-05 -1.55274886E-04  2.36894688E-04  1.35650061E-03 -1.46734369E-04
 -7.26180743E-04  9.00657155E-04  6.31132350E-05 -7.11038936E-05  0.00000000E+00
  5.71427342E-04 -2.08185107E-03  0.00000000E+00  9.99376305E-05  4.99264058E-04
  0.00000000E+00  1.85564893E-04 -3.07303376E-04  0.00000000E+00 -1.27848654E-04
  0.00000000E+00  0.00000000E+00 -2.03965384E-04 -1.58267839E-04 -4.58755889E-04
  0.00000000E+00  0.00000000E+00 -5.99917682E-04 -9.21986269E-04 -4.04774307E-05
  0.00000000E+00  0.00000000E+00  5.82054933E-05  1.17123557E-04  0.00000000E+00
  8.31416267E-06  3.68334327E-05  0.00000000E+00  0.00000000E+00 -2.42550035E-05
 -4.63439370E-06  0.00000000E+00 -1.35098991E-04  1.57811111E-04  0.00000000E+00
  0.00000000E+00 -3.15588800E-04 -3.45907126E-05  9.76645923E-01 -9.88468984E-03
  4.35755228E-02  3.69756644E-03 -8.92023232E-04 -4.43814424E-04  2.13155267E-03
  0.00000000E+00  5.10208758E-04 -2.50482218E-03  0.00000000E+00 -7.82338016E-05
  8.23524131E-04  0.00000000E+00  1.04523813E-04 -6.41754098E-05  0.00000000E+00
 -1.93432025E-04  0.00000000E+00  0.00000000E+00 -7.46361733E-05 -4.33796306E-05
  4.08952247E-04  0.00000000E+00  0.00000000E+00  8.58747013E-04  4.82205220E-04
 -2.05936464E-04  0.00000000E+00  0.00000000E+00 -1.43513190E-04 -3.85617694E-05
  0.00000000E+00 -4.93214943E-06  7.02662369E-05  0.00000000E+00  0.00000000E+00
 -2.86242971E-05  1.06529530E-05  0.00000000E+00 -8.85248782E-05  9.15563928E-05
  0.00000000E+00  0.00000000E+00 -1.66014691E-04  2.05197853E-04  3.40145161E-04
  2.25969141E-03  1.58987570E-03 -1.38536390E-05  5.87222049E-05  2.95681340E-04
  0.00000000E+00  4.12411498E-04  1.15532873E-03  0.00000000E+00 -1.16991860E-04
  3.03440108E-04  0.00000000E+00 -4.99708432E-05  0.00000000E+00  0.00000000E+00
 -7.64520111E-06 -5.98183844E-06 -2.22600197E-04  0.00000000E+00  0.00000000E+00
 -3.53324066E-04  4.13954456E-04  9.76841580E-01 -9.21230681E-03  4.34538973E-02
 -4.42157901E-05 -2.10386517E-03 -2.04474421E-03 -8.30959807E-04  0.00000000E+00
  2.09880387E-03  8.43576270E-04  0.00000000E+00 -4.24543211E-04  8.38808151E-04
  0.00000000E+00  2.46141916E-04 -2.79637401E-04  0.00000000E+00  3.62157127E-05
  0.00000000E+00  0.00000000E+00 -6.77451981E-05  5.90910812E-05  7.85516767E-04
  0.00000000E+00  0.00000000E+00 -1.72290141E-04  3.40060511E-04 -2.25987608E-04
  0.00000000E+00  0.00000000E+00  3.77303118E-04 -1.63813962E-05  0.00000000E+00
 -8.22924930E-05 -5.39582233E-06  0.00000000E+00  0.00000000E+00  9.49670891E-06