 Entering Gaussian System, Link 0=g16
 Input=hoono_r4_1p165123.gjf
 Output=hoono_r4_1p165123.log
 Initial command:
 /sw/contrib/gaussian/g16/B01/g16/l1.exe "/scr/Gau-22921.inp" -scrdir="/scr/"
 Entering Link 1 = /sw/contrib/gaussian/g16/B01/g16/l1.exe PID=     22922.
  
 Copyright (c) 1988-2017, Gaussian, Inc.  All Rights Reserved.
  
 This is part of the Gaussian(R) 16 program.  It is based on
 the Gaussian(R) 09 system (copyright 2009, Gaussian, Inc.),
 the Gaussian(R) 03 system (copyright 2003, Gaussian, Inc.),
 the Gaussian(R) 98 system (copyright 1998, Gaussian, Inc.),
 the Gaussian(R) 94 system (copyright 1995, Gaussian, Inc.),
 the Gaussian 92(TM) system (copyright 1992, Gaussian, Inc.),
 the Gaussian 90(TM) system (copyright 1990, Gaussian, Inc.),
 the Gaussian 88(TM) system (copyright 1988, Gaussian, Inc.),
 the Gaussian 86(TM) system (copyright 1986, Carnegie Mellon
 University), and the Gaussian 82(TM) system (copyright 1983,
 Carnegie Mellon University). Gaussian is a federally registered
 trademark of Gaussian, Inc.
  
 This software contains proprietary and confidential information,
 including trade secrets, belonging to Gaussian, Inc.
  
 This software is provided under written license and may be
 used, copied, transmitted, or stored only in accord with that
 written license.
  
 The following legend is applicable only to US Government
 contracts under FAR:
  
                    RESTRICTED RIGHTS LEGEND
  
 Use, reproduction and disclosure by the US Government is
 subject to restrictions as set forth in subparagraphs (a)
 and (c) of the Commercial Computer Software - Restricted
 Rights clause in FAR 52.227-19.
  
 Gaussian, Inc.
 340 Quinnipiac St., Bldg. 40, Wallingford CT 06492
  
  
 ---------------------------------------------------------------
 Warning -- This program may not be used in any manner that
 competes with the business of Gaussian, Inc. or will provide
 assistance to any competitor of Gaussian, Inc.  The licensee
 of this program is prohibited from giving any competitor of
 Gaussian, Inc. access to this program.  By using this program,
 the user acknowledges that Gaussian, Inc. is engaged in the
 business of creating and licensing software in the field of
 computational chemistry and represents and warrants to the
 licensee that it is not a competitor of Gaussian, Inc. and that
 it will not use this program in any manner prohibited above.
 ---------------------------------------------------------------
  

 Cite this work as:
 Gaussian 16, Revision B.01,
 M. J. Frisch, G. W. Trucks, H. B. Schlegel, G. E. Scuseria, 
 M. A. Robb, J. R. Cheeseman, G. Scalmani, V. Barone, 
 G. A. Petersson, H. Nakatsuji, X. Li, M. Caricato, A. V. Marenich, 
 J. Bloino, B. G. Janesko, R. Gomperts, B. Mennucci, H. P. Hratchian, 
 J. V. Ortiz, A. F. Izmaylov, J. L. Sonnenberg, D. Williams-Young, 
 F. Ding, F. Lipparini, F. Egidi, J. Goings, B. Peng, A. Petrone, 
 T. Henderson, D. Ranasinghe, V. G. Zakrzewski, J. Gao, N. Rega, 
 G. Zheng, W. Liang, M. Hada, M. Ehara, K. Toyota, R. Fukuda, 
 J. Hasegawa, M. Ishida, T. Nakajima, Y. Honda, O. Kitao, H. Nakai, 
 T. Vreven, K. Throssell, J. A. Montgomery, Jr., J. E. Peralta, 
 F. Ogliaro, M. J. Bearpark, J. J. Heyd, E. N. Brothers, K. N. Kudin, 
 V. N. Staroverov, T. A. Keith, R. Kobayashi, J. Normand, 
 K. Raghavachari, A. P. Rendell, J. C. Burant, S. S. Iyengar, 
 J. Tomasi, M. Cossi, J. M. Millam, M. Klene, C. Adamo, R. Cammi, 
 J. W. Ochterski, R. L. Martin, K. Morokuma, O. Farkas, 
 J. B. Foresman, and D. J. Fox, Gaussian, Inc., Wallingford CT, 2016.
 
 ******************************************
 Gaussian 16:  ES64L-G16RevB.01 20-Dec-2017
                21-Feb-2022 
 ******************************************
 %nproc=28
 Will use up to   28 processors via shared memory.
 %mem=120GB
 %chk=hoono_r4_1p165123.chk
 ---------------------------------------
 #p freq mp2/aug-cc-pvtz density=current
 ---------------------------------------
 1/10=4,30=1,38=1/1,3;
 2/12=2,17=6,18=5,40=1/2;
 3/5=16,6=1,7=10,11=9,25=1,30=1,71=2,140=1/1,2,3;
 4//1;
 5/5=2,38=5,98=1/2;
 8/6=3,8=1,10=1,19=11,30=-1/1;
 9/15=3,16=-3/6;
 11/6=1,8=1,15=11,17=12,24=-1,27=1,28=-2,29=300,32=6,42=3/1,2,10;
 10/6=2,21=1/2;
 8/6=4,8=1,10=1,19=11,30=-1/11,4;
 10/5=1,20=4/2;
 11/12=2,14=11,16=1,17=2,28=-2,42=3,76=2/2,10,12;
 6/7=2,8=2,9=2,10=2,22=-1/1;
 7/8=1,10=1,12=2,25=1,44=2/1,2,3,16;
 1/10=4,30=1/3;
 99//99;
 Leave Link    1 at Mon Feb 21 20:25:24 2022, MaxMem= 16106127360 cpu:               2.3 elap:               0.1
 (Enter /sw/contrib/gaussian/g16/B01/g16/l101.exe)
 -----
 title
 -----
 Symbolic Z-matrix:
 Charge =  0 Multiplicity = 1
 H
 O                    1    r1
 O                    2    r2       1    a1
 N                    3    r3       2    a2       1    d1       0
 O                    4    r4       3    a3       2    d2       0
       Variables:
  r1                    0.96898                  
  r2                    1.45492                  
  r3                    1.45878                  
  r4                    1.16512                  
  a1                   97.59495                  
  a2                  102.29752                  
  a3                  109.06955                  
  d1                  180.                       
  d2                  180.                       
 
 ITRead=  0  0  0  0  0
 MicOpt= -1 -1 -1 -1 -1
 NAtoms=      5 NQM=        5 NQMF=       0 NMMI=      0 NMMIF=      0
                NMic=       0 NMicF=      0.
                    Isotopes and Nuclear Properties:
 (Nuclear quadrupole moments (NQMom) in fm**2, nuclear magnetic moments (NMagM)
  in nuclear magnetons)

  Atom         1           2           3           4           5
 IAtWgt=           1          16          16          14          16
 AtmWgt=   1.0078250  15.9949146  15.9949146  14.0030740  15.9949146
 NucSpn=           1           0           0           2           0
 AtZEff=  -0.0000000  -0.0000000  -0.0000000  -0.0000000  -0.0000000
 NQMom=    0.0000000   0.0000000   0.0000000   2.0440000   0.0000000
 NMagM=    2.7928460   0.0000000   0.0000000   0.4037610   0.0000000
 AtZNuc=   1.0000000   8.0000000   8.0000000   7.0000000   8.0000000
 Leave Link  101 at Mon Feb 21 20:25:24 2022, MaxMem= 16106127360 cpu:               2.8 elap:               0.2
 (Enter /sw/contrib/gaussian/g16/B01/g16/l103.exe)

 GradGradGradGradGradGradGradGradGradGradGradGradGradGradGradGradGradGrad
 Berny optimization.
 Initialization pass.
                       ----------------------------
                       !    Initial Parameters    !
                       ! (Angstroms and Degrees)  !
 ----------------------                            ----------------------
 !      Name          Value   Derivative information (Atomic Units)     !
 ------------------------------------------------------------------------
 !       r1          0.969    calculate D2E/DX2 analytically            !
 !       r2          1.4549   calculate D2E/DX2 analytically            !
 !       r3          1.4588   calculate D2E/DX2 analytically            !
 !       r4          1.1651   calculate D2E/DX2 analytically            !
 !       a1         97.5949   calculate D2E/DX2 analytically            !
 !       a2        102.2975   calculate D2E/DX2 analytically            !
 !       a3        109.0696   calculate D2E/DX2 analytically            !
 !       d1        180.0      calculate D2E/DX2 analytically            !
 !       d2        180.0      calculate D2E/DX2 analytically            !
 ------------------------------------------------------------------------
 Trust Radius=3.00D-01 FncErr=1.00D-07 GrdErr=1.00D-07 EigMax=2.50D+02 EigMin=1.00D-04
 Number of steps in this run=      2 maximum allowed number of steps=      2.
 GradGradGradGradGradGradGradGradGradGradGradGradGradGradGradGradGradGrad

 Leave Link  103 at Mon Feb 21 20:25:24 2022, MaxMem= 16106127360 cpu:               0.5 elap:               0.0
 (Enter /sw/contrib/gaussian/g16/B01/g16/l202.exe)
                          Input orientation:                          
 ---------------------------------------------------------------------
 Center     Atomic      Atomic             Coordinates (Angstroms)
 Number     Number       Type             X           Y           Z
 ---------------------------------------------------------------------
      1          1           0        0.000000    0.000000    0.000000
      2          8           0        0.000000    0.000000    0.968976
      3          8           0        1.442156    0.000000    1.161271
      4          7           0        1.561752    0.000000    2.615144
      5          8           0        2.690437    0.000000    2.904248
 ---------------------------------------------------------------------
                    Distance matrix (angstroms):
                    1          2          3          4          5
     1  H    0.000000
     2  O    0.968976   0.000000
     3  O    1.851584   1.454919   0.000000
     4  N    3.045989   2.269127   1.458784   0.000000
     5  O    3.958928   3.314171   2.143869   1.165123   0.000000
 Stoichiometry    HNO3
 Framework group  CS[SG(HNO3)]
 Deg. of freedom     7
 Full point group                 CS      NOp   2
 Largest Abelian subgroup         CS      NOp   2
 Largest concise Abelian subgroup C1      NOp   1
                         Standard orientation:                         
 ---------------------------------------------------------------------
 Center     Atomic      Atomic             Coordinates (Angstroms)
 Number     Number       Type             X           Y           Z
 ---------------------------------------------------------------------
      1          1           0        1.551197    1.683813    0.000000
      2          8           0        1.454163    0.719708    0.000000
      3          8           0        0.000000    0.672798    0.000000
      4          7           0       -0.264586   -0.761791   -0.000000
      5          8           0       -1.416549   -0.936415   -0.000000
 ---------------------------------------------------------------------
 Rotational constants (GHZ):          54.9928234           5.0243475           4.6037334
 Leave Link  202 at Mon Feb 21 20:25:24 2022, MaxMem= 16106127360 cpu:               0.3 elap:               0.0
 (Enter /sw/contrib/gaussian/g16/B01/g16/l301.exe)
 Standard basis: Aug-CC-pVTZ (5D, 7F)
 Ernie: Thresh=  0.10000D-02 Tol=  0.10000D-05 Strict=F.
 Ernie:  12 primitive shells out of 131 were deleted.
 There are   166 symmetry adapted cartesian basis functions of A'  symmetry.
 There are    79 symmetry adapted cartesian basis functions of A"  symmetry.
 There are   136 symmetry adapted basis functions of A'  symmetry.
 There are    71 symmetry adapted basis functions of A"  symmetry.
   207 basis functions,   315 primitive gaussians,   245 cartesian basis functions
    16 alpha electrons       16 beta electrons
       nuclear repulsion energy       117.0427291963 Hartrees.
 IExCor=    0 DFT=F Ex=HF Corr=None ExCW=0 ScaHFX=  1.000000
 ScaDFX=  1.000000  1.000000  1.000000  1.000000 ScalE2=  1.000000  1.000000
 IRadAn=      5 IRanWt=     -1 IRanGd=            0 ICorTp=0 IEmpDi=  4
 NAtoms=    5 NActive=    5 NUniq=    5 SFac= 1.00D+00 NAtFMM=   60 NAOKFM=F Big=F
 Integral buffers will be    131072 words long.
 Raffenetti 1 integral format.
 Two-electron integral symmetry is turned on.
 Leave Link  301 at Mon Feb 21 20:25:24 2022, MaxMem= 16106127360 cpu:               2.6 elap:               0.1
 (Enter /sw/contrib/gaussian/g16/B01/g16/l302.exe)
 NPDir=0 NMtPBC=     1 NCelOv=     1 NCel=       1 NClECP=     1 NCelD=      1
         NCelK=      1 NCelE2=     1 NClLst=     1 CellRange=     0.0.
 One-electron integrals computed using PRISM.
 One-electron integral symmetry used in STVInt
 NBasis=   207 RedAO= T EigKep=  1.81D-04  NBF=   136    71
 NBsUse=   207 1.00D-06 EigRej= -1.00D+00 NBFU=   136    71
 Leave Link  302 at Mon Feb 21 20:25:24 2022, MaxMem= 16106127360 cpu:               4.1 elap:               0.2
 (Enter /sw/contrib/gaussian/g16/B01/g16/l303.exe)
 DipDrv:  MaxL=1.
 Leave Link  303 at Mon Feb 21 20:25:25 2022, MaxMem= 16106127360 cpu:               3.3 elap:               0.2
 (Enter /sw/contrib/gaussian/g16/B01/g16/l401.exe)
 ExpMin= 2.53D-02 ExpMax= 1.53D+04 ExpMxC= 5.22D+02 IAcc=3 IRadAn=         5 AccDes= 0.00D+00
 Harris functional with IExCor=  205 and IRadAn=       5 diagonalized for initial guess.
 HarFok:  IExCor=  205 AccDes= 0.00D+00 IRadAn=         5 IDoV= 1 UseB2=F ITyADJ=14
 ICtDFT=  3500011 ScaDFX=  1.000000  1.000000  1.000000  1.000000
 FoFCou: FMM=F IPFlag=           0 FMFlag=      100000 FMFlg1=           0
         NFxFlg=           0 DoJE=T BraDBF=F KetDBF=T FulRan=T
         wScrn=  0.000000 ICntrl=       500 IOpCl=  0 I1Cent=   200000004 NGrid=           0
         NMat0=    1 NMatS0=      1 NMatT0=    0 NMatD0=    1 NMtDS0=    0 NMtDT0=    0
 Petite list used in FoFCou.
 Harris En= -279.628580585171    
 JPrj=0 DoOrth=F DoCkMO=F.
 Initial guess orbital symmetries:
       Occupied  (A') (A') (A') (A') (A') (A') (A') (A') (A') (A')
                 (A") (A') (A') (A") (A") (A')
       Virtual   (A") (A') (A') (A') (A') (A') (A") (A') (A') (A')
                 (A") (A') (A") (A') (A') (A") (A') (A") (A') (A')
                 (A') (A') (A') (A') (A') (A") (A') (A") (A') (A')
                 (A") (A') (A") (A') (A') (A") (A') (A") (A') (A')
                 (A") (A') (A") (A') (A") (A') (A') (A') (A") (A")
                 (A') (A') (A') (A') (A") (A') (A") (A') (A") (A')
                 (A') (A') (A") (A') (A') (A") (A') (A") (A') (A')
                 (A") (A') (A') (A") (A") (A') (A') (A") (A') (A')
                 (A') (A") (A') (A") (A') (A") (A') (A") (A') (A')
                 (A') (A") (A') (A") (A') (A") (A") (A') (A') (A")
                 (A') (A') (A") (A') (A') (A') (A') (A") (A") (A')
                 (A") (A') (A') (A') (A") (A') (A') (A') (A") (A')
                 (A") (A') (A") (A') (A") (A') (A') (A") (A") (A')
                 (A') (A') (A') (A") (A") (A') (A") (A') (A') (A')
                 (A') (A") (A") (A') (A') (A") (A') (A') (A') (A')
                 (A") (A') (A') (A") (A') (A") (A') (A") (A') (A")
                 (A') (A") (A') (A") (A') (A") (A") (A") (A') (A')
                 (A") (A') (A") (A') (A") (A') (A") (A") (A') (A')
                 (A') (A') (A') (A') (A') (A') (A') (A') (A') (A')
                 (A')
 The electronic state of the initial guess is 1-A'.
 Leave Link  401 at Mon Feb 21 20:25:25 2022, MaxMem= 16106127360 cpu:               5.5 elap:               0.2
 (Enter /sw/contrib/gaussian/g16/B01/g16/l502.exe)
 Keep R1 ints in memory in symmetry-blocked form, NReq=348887737.
 FoFCou: FMM=F IPFlag=           0 FMFlag=           0 FMFlg1=           0
         NFxFlg=           0 DoJE=F BraDBF=F KetDBF=F FulRan=T
         wScrn=  0.000000 ICntrl=       600 IOpCl=  0 I1Cent=           0 NGrid=           0
         NMat0=    1 NMatS0=  21528 NMatT0=    0 NMatD0=    1 NMtDS0=    0 NMtDT0=    0
 Petite list used in FoFCou.
 Closed shell SCF:
 Using DIIS extrapolation, IDIIS=  1040.
 NGot= 16106127360 LenX= 15988850015 LenY= 15988789549
 Requested convergence on RMS density matrix=1.00D-08 within 128 cycles.
 Requested convergence on MAX density matrix=1.00D-06.
 Requested convergence on             energy=1.00D-06.
 No special actions if energy rises.

 Cycle   1  Pass 1  IDiag  1:
 E= -279.372497319539    
 DIIS: error= 2.69D-02 at cycle   1 NSaved=   1.
 NSaved= 1 IEnMin= 1 EnMin= -279.372497319539     IErMin= 1 ErrMin= 2.69D-02
 ErrMax= 2.69D-02  0.00D+00 EMaxC= 1.00D-01 BMatC= 4.37D-01 BMatP= 4.37D-01
 IDIUse=3 WtCom= 7.31D-01 WtEn= 2.69D-01
 Coeff-Com:  0.100D+01
 Coeff-En:   0.100D+01
 Coeff:      0.100D+01
 Gap=     0.515 Goal=   None    Shift=    0.000
 GapD=    0.515 DampG=2.000 DampE=0.500 DampFc=1.0000 IDamp=-1.
 RMSDP=1.61D-03 MaxDP=9.88D-02              OVMax= 1.11D-01

 Cycle   2  Pass 1  IDiag  1:
 E= -279.454925813479     Delta-E=       -0.082428493940 Rises=F Damp=F
 DIIS: error= 1.77D-02 at cycle   2 NSaved=   2.
 NSaved= 2 IEnMin= 2 EnMin= -279.454925813479     IErMin= 2 ErrMin= 1.77D-02
 ErrMax= 1.77D-02  0.00D+00 EMaxC= 1.00D-01 BMatC= 6.96D-02 BMatP= 4.37D-01
 IDIUse=3 WtCom= 8.23D-01 WtEn= 1.77D-01
 Coeff-Com:  0.191D+00 0.809D+00
 Coeff-En:   0.000D+00 0.100D+01
 Coeff:      0.157D+00 0.843D+00
 Gap=     0.527 Goal=   None    Shift=    0.000
 RMSDP=8.89D-04 MaxDP=3.69D-02 DE=-8.24D-02 OVMax= 6.85D-02

 Cycle   3  Pass 1  IDiag  1:
 E= -279.483054220076     Delta-E=       -0.028128406596 Rises=F Damp=F
 DIIS: error= 1.03D-02 at cycle   3 NSaved=   3.
 NSaved= 3 IEnMin= 3 EnMin= -279.483054220076     IErMin= 3 ErrMin= 1.03D-02
 ErrMax= 1.03D-02  0.00D+00 EMaxC= 1.00D-01 BMatC= 2.79D-02 BMatP= 6.96D-02
 IDIUse=3 WtCom= 8.97D-01 WtEn= 1.03D-01
 Coeff-Com: -0.328D-01 0.378D+00 0.654D+00
 Coeff-En:   0.000D+00 0.240D+00 0.760D+00
 Coeff:     -0.295D-01 0.364D+00 0.665D+00
 Gap=     0.509 Goal=   None    Shift=    0.000
 RMSDP=3.71D-04 MaxDP=1.51D-02 DE=-2.81D-02 OVMax= 3.72D-02

 Cycle   4  Pass 1  IDiag  1:
 E= -279.501541644335     Delta-E=       -0.018487424259 Rises=F Damp=F
 DIIS: error= 1.28D-03 at cycle   4 NSaved=   4.
 NSaved= 4 IEnMin= 4 EnMin= -279.501541644335     IErMin= 4 ErrMin= 1.28D-03
 ErrMax= 1.28D-03  0.00D+00 EMaxC= 1.00D-01 BMatC= 4.87D-04 BMatP= 2.79D-02
 IDIUse=3 WtCom= 9.87D-01 WtEn= 1.28D-02
 Coeff-Com: -0.117D-01 0.586D-01 0.160D+00 0.793D+00
 Coeff-En:   0.000D+00 0.000D+00 0.000D+00 0.100D+01
 Coeff:     -0.115D-01 0.578D-01 0.158D+00 0.795D+00
 Gap=     0.501 Goal=   None    Shift=    0.000
 RMSDP=8.94D-05 MaxDP=2.77D-03 DE=-1.85D-02 OVMax= 1.11D-02

 Cycle   5  Pass 1  IDiag  1:
 E= -279.502203095938     Delta-E=       -0.000661451603 Rises=F Damp=F
 DIIS: error= 7.31D-04 at cycle   5 NSaved=   5.
 NSaved= 5 IEnMin= 5 EnMin= -279.502203095938     IErMin= 5 ErrMin= 7.31D-04
 ErrMax= 7.31D-04  0.00D+00 EMaxC= 1.00D-01 BMatC= 8.57D-05 BMatP= 4.87D-04
 IDIUse=3 WtCom= 9.93D-01 WtEn= 7.31D-03
 Coeff-Com:  0.606D-02-0.722D-01-0.117D+00 0.212D-01 0.116D+01
 Coeff-En:   0.000D+00 0.000D+00 0.000D+00 0.000D+00 0.100D+01
 Coeff:      0.602D-02-0.717D-01-0.117D+00 0.210D-01 0.116D+01
 Gap=     0.501 Goal=   None    Shift=    0.000
 RMSDP=7.54D-05 MaxDP=2.07D-03 DE=-6.61D-04 OVMax= 1.09D-02

 Cycle   6  Pass 1  IDiag  1:
 E= -279.502511189764     Delta-E=       -0.000308093827 Rises=F Damp=F
 DIIS: error= 2.79D-04 at cycle   6 NSaved=   6.
 NSaved= 6 IEnMin= 6 EnMin= -279.502511189764     IErMin= 6 ErrMin= 2.79D-04
 ErrMax= 2.79D-04  0.00D+00 EMaxC= 1.00D-01 BMatC= 1.64D-05 BMatP= 8.57D-05
 IDIUse=3 WtCom= 9.97D-01 WtEn= 2.79D-03
 Coeff-Com:  0.695D-03 0.339D-03 0.216D-02-0.128D+00-0.214D+00 0.134D+01
 Coeff-En:   0.000D+00 0.000D+00 0.000D+00 0.000D+00 0.000D+00 0.100D+01
 Coeff:      0.693D-03 0.338D-03 0.215D-02-0.128D+00-0.213D+00 0.134D+01
 Gap=     0.501 Goal=   None    Shift=    0.000
 RMSDP=4.46D-05 MaxDP=1.23D-03 DE=-3.08D-04 OVMax= 5.42D-03

 Cycle   7  Pass 1  IDiag  1:
 E= -279.502582023915     Delta-E=       -0.000070834151 Rises=F Damp=F
 DIIS: error= 1.23D-04 at cycle   7 NSaved=   7.
 NSaved= 7 IEnMin= 7 EnMin= -279.502582023915     IErMin= 7 ErrMin= 1.23D-04
 ErrMax= 1.23D-04  0.00D+00 EMaxC= 1.00D-01 BMatC= 4.65D-06 BMatP= 1.64D-05
 IDIUse=3 WtCom= 9.99D-01 WtEn= 1.23D-03
 Coeff-Com: -0.923D-03 0.136D-01 0.265D-01-0.258D-01-0.293D+00 0.409D+00
 Coeff-Com:  0.871D+00
 Coeff-En:   0.000D+00 0.000D+00 0.000D+00 0.000D+00 0.000D+00 0.000D+00
 Coeff-En:   0.100D+01
 Coeff:     -0.922D-03 0.136D-01 0.265D-01-0.258D-01-0.292D+00 0.408D+00
 Coeff:      0.871D+00
 Gap=     0.501 Goal=   None    Shift=    0.000
 RMSDP=1.33D-05 MaxDP=3.77D-04 DE=-7.08D-05 OVMax= 1.54D-03

 Cycle   8  Pass 1  IDiag  1:
 E= -279.502591013218     Delta-E=       -0.000008989303 Rises=F Damp=F
 DIIS: error= 5.53D-05 at cycle   8 NSaved=   8.
 NSaved= 8 IEnMin= 8 EnMin= -279.502591013218     IErMin= 8 ErrMin= 5.53D-05
 ErrMax= 5.53D-05  0.00D+00 EMaxC= 1.00D-01 BMatC= 5.84D-07 BMatP= 4.65D-06
 IDIUse=1 WtCom= 1.00D+00 WtEn= 0.00D+00
 Coeff-Com: -0.450D-03 0.354D-02 0.777D-02 0.272D-01-0.429D-01-0.191D+00
 Coeff-Com:  0.148D+00 0.105D+01
 Coeff:     -0.450D-03 0.354D-02 0.777D-02 0.272D-01-0.429D-01-0.191D+00
 Coeff:      0.148D+00 0.105D+01
 Gap=     0.501 Goal=   None    Shift=    0.000
 RMSDP=6.92D-06 MaxDP=2.01D-04 DE=-8.99D-06 OVMax= 7.51D-04

 Cycle   9  Pass 1  IDiag  1:
 E= -279.502592756811     Delta-E=       -0.000001743593 Rises=F Damp=F
 DIIS: error= 1.51D-05 at cycle   9 NSaved=   9.
 NSaved= 9 IEnMin= 9 EnMin= -279.502592756811     IErMin= 9 ErrMin= 1.51D-05
 ErrMax= 1.51D-05  0.00D+00 EMaxC= 1.00D-01 BMatC= 6.44D-08 BMatP= 5.84D-07
 IDIUse=1 WtCom= 1.00D+00 WtEn= 0.00D+00
 Coeff-Com:  0.116D-03-0.167D-02-0.299D-02-0.172D-02 0.334D-01-0.186D-02
 Coeff-Com: -0.156D+00-0.103D+00 0.123D+01
 Coeff:      0.116D-03-0.167D-02-0.299D-02-0.172D-02 0.334D-01-0.186D-02
 Coeff:     -0.156D+00-0.103D+00 0.123D+01
 Gap=     0.501 Goal=   None    Shift=    0.000
 RMSDP=1.87D-06 MaxDP=6.30D-05 DE=-1.74D-06 OVMax= 1.65D-04

 Cycle  10  Pass 1  IDiag  1:
 E= -279.502592904580     Delta-E=       -0.000000147769 Rises=F Damp=F
 DIIS: error= 4.00D-06 at cycle  10 NSaved=  10.
 NSaved=10 IEnMin=10 EnMin= -279.502592904580     IErMin=10 ErrMin= 4.00D-06
 ErrMax= 4.00D-06  0.00D+00 EMaxC= 1.00D-01 BMatC= 5.13D-09 BMatP= 6.44D-08
 IDIUse=1 WtCom= 1.00D+00 WtEn= 0.00D+00
 Coeff-Com:  0.328D-04-0.271D-03-0.383D-03-0.266D-02 0.220D-02 0.192D-01
 Coeff-Com: -0.134D-01-0.777D-01-0.630D-01 0.114D+01
 Coeff:      0.328D-04-0.271D-03-0.383D-03-0.266D-02 0.220D-02 0.192D-01
 Coeff:     -0.134D-01-0.777D-01-0.630D-01 0.114D+01
 Gap=     0.501 Goal=   None    Shift=    0.000
 RMSDP=4.84D-07 MaxDP=2.00D-05 DE=-1.48D-07 OVMax= 3.83D-05

 Cycle  11  Pass 1  IDiag  1:
 E= -279.502592915879     Delta-E=       -0.000000011299 Rises=F Damp=F
 DIIS: error= 1.91D-06 at cycle  11 NSaved=  11.
 NSaved=11 IEnMin=11 EnMin= -279.502592915879     IErMin=11 ErrMin= 1.91D-06
 ErrMax= 1.91D-06  0.00D+00 EMaxC= 1.00D-01 BMatC= 5.95D-10 BMatP= 5.13D-09
 IDIUse=1 WtCom= 1.00D+00 WtEn= 0.00D+00
 Coeff-Com: -0.202D-04 0.235D-03 0.472D-03 0.493D-03-0.417D-02-0.321D-02
 Coeff-Com:  0.190D-01 0.311D-01-0.135D+00-0.179D+00 0.127D+01
 Coeff:     -0.202D-04 0.235D-03 0.472D-03 0.493D-03-0.417D-02-0.321D-02
 Coeff:      0.190D-01 0.311D-01-0.135D+00-0.179D+00 0.127D+01
 Gap=     0.501 Goal=   None    Shift=    0.000
 RMSDP=1.67D-07 MaxDP=6.11D-06 DE=-1.13D-08 OVMax= 1.65D-05

 Cycle  12  Pass 1  IDiag  1:
 E= -279.502592917474     Delta-E=       -0.000000001594 Rises=F Damp=F
 DIIS: error= 5.64D-07 at cycle  12 NSaved=  12.
 NSaved=12 IEnMin=12 EnMin= -279.502592917474     IErMin=12 ErrMin= 5.64D-07
 ErrMax= 5.64D-07  0.00D+00 EMaxC= 1.00D-01 BMatC= 6.45D-11 BMatP= 5.95D-10
 IDIUse=1 WtCom= 1.00D+00 WtEn= 0.00D+00
 Coeff-Com:  0.106D-05-0.266D-04-0.583D-04 0.170D-03 0.102D-02-0.216D-02
 Coeff-Com: -0.390D-02 0.524D-02 0.401D-01-0.106D+00-0.296D+00 0.136D+01
 Coeff:      0.106D-05-0.266D-04-0.583D-04 0.170D-03 0.102D-02-0.216D-02
 Coeff:     -0.390D-02 0.524D-02 0.401D-01-0.106D+00-0.296D+00 0.136D+01
 Gap=     0.501 Goal=   None    Shift=    0.000
 RMSDP=6.74D-08 MaxDP=2.66D-06 DE=-1.59D-09 OVMax= 6.41D-06

 Cycle  13  Pass 1  IDiag  1:
 E= -279.502592917679     Delta-E=       -0.000000000205 Rises=F Damp=F
 DIIS: error= 1.59D-07 at cycle  13 NSaved=  13.
 NSaved=13 IEnMin=13 EnMin= -279.502592917679     IErMin=13 ErrMin= 1.59D-07
 ErrMax= 1.59D-07  0.00D+00 EMaxC= 1.00D-01 BMatC= 3.63D-12 BMatP= 6.45D-11
 IDIUse=1 WtCom= 1.00D+00 WtEn= 0.00D+00
 Coeff-Com:  0.124D-05-0.137D-04-0.221D-04-0.837D-04 0.123D-03 0.715D-03
 Coeff-Com: -0.720D-03-0.325D-02 0.468D-03 0.397D-01-0.299D-01-0.335D+00
 Coeff-Com:  0.133D+01
 Coeff:      0.124D-05-0.137D-04-0.221D-04-0.837D-04 0.123D-03 0.715D-03
 Coeff:     -0.720D-03-0.325D-02 0.468D-03 0.397D-01-0.299D-01-0.335D+00
 Coeff:      0.133D+01
 Gap=     0.501 Goal=   None    Shift=    0.000
 RMSDP=1.82D-08 MaxDP=5.32D-07 DE=-2.05D-10 OVMax= 1.51D-06

 Cycle  14  Pass 1  IDiag  1:
 E= -279.502592917691     Delta-E=       -0.000000000012 Rises=F Damp=F
 DIIS: error= 2.33D-08 at cycle  14 NSaved=  14.
 NSaved=14 IEnMin=14 EnMin= -279.502592917691     IErMin=14 ErrMin= 2.33D-08
 ErrMax= 2.33D-08  0.00D+00 EMaxC= 1.00D-01 BMatC= 1.77D-13 BMatP= 3.63D-12
 IDIUse=1 WtCom= 1.00D+00 WtEn= 0.00D+00
 Coeff-Com: -0.185D-06 0.304D-05 0.549D-05 0.457D-05-0.803D-04 0.419D-04
 Coeff-Com:  0.265D-03 0.237D-03-0.239D-02 0.118D-02 0.175D-01-0.252D-01
 Coeff-Com: -0.203D+00 0.121D+01
 Coeff:     -0.185D-06 0.304D-05 0.549D-05 0.457D-05-0.803D-04 0.419D-04
 Coeff:      0.265D-03 0.237D-03-0.239D-02 0.118D-02 0.175D-01-0.252D-01
 Coeff:     -0.203D+00 0.121D+01
 Gap=     0.501 Goal=   None    Shift=    0.000
 RMSDP=3.64D-09 MaxDP=8.71D-08 DE=-1.20D-11 OVMax= 3.25D-07

 SCF Done:  E(RHF) =  -279.502592918     A.U. after   14 cycles
            NFock= 14  Conv=0.36D-08     -V/T= 2.0023
 KE= 2.788730617558D+02 PE=-8.954339869237D+02 EE= 2.200156030539D+02
 Leave Link  502 at Mon Feb 21 20:25:28 2022, MaxMem= 16106127360 cpu:              51.6 elap:               3.3
 (Enter /sw/contrib/gaussian/g16/B01/g16/l801.exe)
 ExpMin= 2.53D-02 ExpMax= 1.53D+04 ExpMxC= 5.22D+02 IAcc=3 IRadAn=         5 AccDes= 0.00D+00
 HarFok:  IExCor=  205 AccDes= 0.00D+00 IRadAn=         5 IDoV=-2 UseB2=F ITyADJ=14
 ICtDFT= 12500011 ScaDFX=  1.000000  1.000000  1.000000  1.000000
 Largest valence mixing into a core orbital is  2.08D-04
 Largest core mixing into a valence orbital is  3.61D-05
 Range of M.O.s used for correlation:     5   207
 NBasis=   207 NAE=    16 NBE=    16 NFC=     4 NFV=     0
 NROrb=    203 NOA=    12 NOB=    12 NVA=   191 NVB=   191

 **** Warning!!: The largest alpha MO coefficient is  0.17656318D+02

 Leave Link  801 at Mon Feb 21 20:25:28 2022, MaxMem= 16106127360 cpu:               3.4 elap:               0.2
 (Enter /sw/contrib/gaussian/g16/B01/g16/l906.exe)
 Frozen-core derivative calculation, NFC=   4 NFV=   0.
 FulOut=F Deriv=T AODrv=T NAtomX=     5
   MMem=           0  MDisk=          12 MDiskD=          12
  W3Min=      811440 MinDsk=     2425030 NBas6D=         245
 NBas2D=       30762    NTT=       30135    LW2=     7400000
    MDV= 16105574283 MDiskM=      328644 NBas2p=       30702
 Disk-based method using ON**2 memory for 12 occupieds at a time.
 Permanent disk used for amplitudes=    11516536 words.
 Estimated scratch disk usage=   321251614 words.
 IMap=   1   2   3   4   5   6   7   8   9  10  11  12  13  14  15  16
 Actual    scratch disk usage=   310331678 words.
 JobTyp=1 Pass  1:  I=   5 to  16 NPSUse= 28 ParTrn=T ParDer=T DoDerP=T.
 (rs|ai) integrals will be sorted in core.
 Spin components of T(2) and E(2):
     alpha-alpha T2 =       0.3390973476D-01 E2=     -0.1222845616D+00
     alpha-beta  T2 =       0.1862048184D+00 E2=     -0.6995224256D+00
     beta-beta   T2 =       0.3390973476D-01 E2=     -0.1222845616D+00
 The integrals were generated   1 times.
 ANorm=    0.1119832259D+01
 E2 =    -0.9440915489D+00 EUMP2 =    -0.28044668446655D+03
 Leave Link  906 at Mon Feb 21 20:27:06 2022, MaxMem= 16106127360 cpu:            2717.3 elap:              97.2
 (Enter /sw/contrib/gaussian/g16/B01/g16/l1101.exe)
 Using compressed Sx but separate Hx and Fx, NAtomX=     5.
 Will process      6 centers per pass.
 Leave Link 1101 at Mon Feb 21 20:27:06 2022, MaxMem= 16106127360 cpu:               5.9 elap:               0.2
 (Enter /sw/contrib/gaussian/g16/B01/g16/l1102.exe)
 Leave Link 1102 at Mon Feb 21 20:27:06 2022, MaxMem= 16106127360 cpu:               0.6 elap:               0.0
 (Enter /sw/contrib/gaussian/g16/B01/g16/l1110.exe)
 Forming Gx(P) for the SCF density, NAtomX=     5.
 Integral derivatives from FoFJK, PRISM(SPDF).
 Do as many integral derivatives as possible in FoFJK.
 G2DrvN: MDV=   16106126844.
 G2DrvN: will do     6 centers at a time, making    1 passes.
 Calling FoFCou, ICntrl=  3107 FMM=F I1Cent=   0 AccDes= 0.00D+00.
 FoFJK:  IHMeth= 1 ICntrl=    3107 DoSepK=F KAlg= 0 I1Cent=           0 FoldK=F
 IRaf=         0 NMat=       1 IRICut=       1 DoRegI=T DoRafI=F ISym2E= 1 IDoP0=0 IntGTp=1.
 FoFCou: FMM=F IPFlag=           0 FMFlag=      100000 FMFlg1=           0
         NFxFlg=           0 DoJE=F BraDBF=F KetDBF=F FulRan=T
         wScrn=  0.000000 ICntrl=      3107 IOpCl=  0 I1Cent=           0 NGrid=           0
         NMat0=    1 NMatS0=      1 NMatT0=    0 NMatD0=    1 NMtDS0=    0 NMtDT0=    0
 Petite list used in FoFCou.
 End of G2Drv F.D. properties file   721 does not exist.
 End of G2Drv F.D. properties file   722 does not exist.
 End of G2Drv F.D. properties file   788 does not exist.
 Leave Link 1110 at Mon Feb 21 20:27:09 2022, MaxMem= 16106127360 cpu:              83.1 elap:               3.0
 (Enter /sw/contrib/gaussian/g16/B01/g16/l1002.exe)
 Minotr:  Closed shell wavefunction.
          IDoAtm=11111
          Frozen-core window.
          Direct CPHF calculation.
          Differentiating once with respect to electric field.
                with respect to dipole field.
          Differentiating once with respect to nuclear coordinates.
          Requested convergence is 1.0D-08 RMS, and 1.0D-07 maximum.
          Secondary convergence is 1.0D-12 RMS, and 1.0D-12 maximum.
          NewPWx=T KeepS1=T KeepF1=T KeepIn=T MapXYZ=F SortEE=F KeepMc=T.
 Keep R1 ints in memory in symmetry-blocked form, NReq=348888983.
 FoFCou: FMM=F IPFlag=           0 FMFlag=           0 FMFlg1=           0
         NFxFlg=           0 DoJE=F BraDBF=F KetDBF=F FulRan=T
         wScrn=  0.000000 ICntrl=       600 IOpCl=  0 I1Cent=           0 NGrid=           0
         NMat0=    1 NMatS0=  21528 NMatT0=    0 NMatD0=    1 NMtDS0=    0 NMtDT0=    0
 Petite list used in FoFCou.
          MDV=   16106127360 using IRadAn=       1.
          Solving linear equations simultaneously, MaxMat=       0.
          There are    18 degrees of freedom in the 1st order CPHF.  IDoFFX=6 NUNeed=    18.
     15 vectors produced by pass  0 Test12= 1.70D-14 5.56D-09 XBig12= 8.23D+00 1.08D+00.
 AX will form    15 AO Fock derivatives at one time.
     15 vectors produced by pass  1 Test12= 1.70D-14 5.56D-09 XBig12= 1.31D+00 2.60D-01.
     15 vectors produced by pass  2 Test12= 1.70D-14 5.56D-09 XBig12= 1.38D-01 9.52D-02.
     15 vectors produced by pass  3 Test12= 1.70D-14 5.56D-09 XBig12= 4.80D-03 1.07D-02.
     15 vectors produced by pass  4 Test12= 1.70D-14 5.56D-09 XBig12= 9.38D-05 1.80D-03.
     15 vectors produced by pass  5 Test12= 1.70D-14 5.56D-09 XBig12= 1.34D-06 1.69D-04.
     15 vectors produced by pass  6 Test12= 1.70D-14 5.56D-09 XBig12= 1.06D-08 1.46D-05.
     13 vectors produced by pass  7 Test12= 1.70D-14 5.56D-09 XBig12= 7.79D-11 1.20D-06.
      3 vectors produced by pass  8 Test12= 1.70D-14 5.56D-09 XBig12= 5.44D-13 1.19D-07.
      2 vectors produced by pass  9 Test12= 1.70D-14 5.56D-09 XBig12= 3.56D-15 1.03D-08.
 InvSVY:  IOpt=1 It=  1 EMax= 6.66D-16
 Solved reduced A of dimension   123 with    15 vectors.
 FullF1:  Do perturbations      1 to      18.
 Saving first derivative matrices.
 End of Minotr F.D. properties file   721 does not exist.
 End of Minotr F.D. properties file   722 does not exist.
 End of Minotr F.D. properties file   788 does not exist.
 Leave Link 1002 at Mon Feb 21 20:27:12 2022, MaxMem= 16106127360 cpu:              81.6 elap:               2.9
 (Enter /sw/contrib/gaussian/g16/B01/g16/l811.exe)
 MDV= 16106127360.
 Form MO integral derivatives with frozen-active canonical formalism.
 MOERI=1 MOERIx=1 NAtoms=     5 NAtomX=     5.
 Discarding MO integrals.
 MO basis two electron integral derivatives will not be stored on disk.
 IAlg= 3 DoFC=T DoPWx=T Debug=F.
 Frozen-core window:  NFC=   4 NFV=   0.
 Reordered first order wavefunction length =     18678272
 In DefCFB: NBatch=  1 ICI= 16 ICA=191 LFMax= 96
            Large arrays: LIAPS=   619940160 LIARS=   288257200 words.
 In StABat: MaxSiz= 55 MinSiz= 25 NAtomB=  5
 DoIAMN: NPSUse= 28.
 Leave Link  811 at Mon Feb 21 20:28:33 2022, MaxMem= 16106127360 cpu:            2279.0 elap:              81.5
 (Enter /sw/contrib/gaussian/g16/B01/g16/l804.exe)
 Frozen-core window:  NFC=   4 NFV=   0.
 Closed-shell transformation, MDV= 16106127360 ITran=4 ISComp=1.
 Semi-Direct transformation.
 ModeAB=           2 MOrb=            16 LenV=   16104923051
 LASXX=     67341636 LTotXX=    67341636 LenRXX=    67341636
 LTotAB=    68301760 MaxLAS=    99807120 LenRXY=    99807120
 NonZer=   134683272 LenScr=   202817536 LnRSAI=           0
 LnScr1=           0 LExtra=           0 Total=    369966292
 MaxDsk=          -1 SrtSym=           F ITran=            4
 DoSDTr:  NPSUse= 28
 JobTyp=0 Pass  1:  I=   1 to  16.
 (rs|ai) integrals will be sorted in core.
 Complete sort for first half transformation.
 First half transformation complete.
 Begin second half transformation for I=  10.
 Begin second half transformation for I=  10.
 Complete sort for second half transformation.
 Second half transformation complete.
 Spin components of T(2) and E(2):
     alpha-alpha T2 =       0.3390973476D-01 E2=     -0.1222845616D+00
     alpha-beta  T2 =       0.1862048184D+00 E2=     -0.6995224256D+00
     beta-beta   T2 =       0.3390973476D-01 E2=     -0.1222845616D+00
 ANorm=    0.1583681968D+01
 E2 =    -0.9440915489D+00 EUMP2 =    -0.28044668446655D+03
 Leave Link  804 at Mon Feb 21 20:28:49 2022, MaxMem= 16106127360 cpu:             433.4 elap:              15.5
 (Enter /sw/contrib/gaussian/g16/B01/g16/l1002.exe)
 Minotr:  Closed shell wavefunction.
          Computing MP2/KS-MP2 derivatives.
          Using Z-Vector for PSCF gradient.
          Skipping F1 and S1 gradient terms here.
          IDoAtm=11111
          Frozen-core window.
          Using MO integrals in the linear equations.
          Forming densities via direct SCF.
          Differentiating once with respect to electric field.
                with respect to dipole field.
          Differentiating once with respect to nuclear coordinates.
          Using symmetry in CPHF.
          Requested convergence is 1.0D-10 RMS, and 1.0D-09 maximum.
          NewPWx=F KeepS1=T KeepF1=T KeepIn=T MapXYZ=F SortEE=F KeepMc=T.
          MDV=   16106127360 using IRadAn=       5.
          Solving linear equations separately, MaxMat=       0.
          There are     1 degrees of freedom in the 1st order CPHF.  IDoFFX=0 NUNeed=     1.
 FoFJK:  IHMeth= 1 ICntrl=       0 DoSepK=F KAlg= 0 I1Cent=           0 FoldK=F
 IRaf=         0 NMat=       1 IRICut=       1 DoRegI=T DoRafI=F ISym2E= 0 IDoP0=0 IntGTp=1.
 FoFCou: FMM=F IPFlag=           0 FMFlag=      100000 FMFlg1=           0
         NFxFlg=           0 DoJE=F BraDBF=F KetDBF=F FulRan=T
         wScrn=  0.000000 ICntrl=         0 IOpCl=  0 I1Cent=           0 NGrid=           0
         NMat0=    1 NMatS0=      1 NMatT0=    0 NMatD0=    1 NMtDS0=    0 NMtDT0=    0
 Symmetry not used in FoFCou.
 LinEq1:  Iter=  0 NonCon=     1 RMS=5.93D-03 Max=1.31D-01 NDo=     1
 LinEq1:  Iter=  1 NonCon=     1 RMS=1.89D-03 Max=3.75D-02 NDo=     1
 LinEq1:  Iter=  2 NonCon=     1 RMS=8.57D-04 Max=1.39D-02 NDo=     1
 LinEq1:  Iter=  3 NonCon=     1 RMS=3.80D-04 Max=7.54D-03 NDo=     1
 LinEq1:  Iter=  4 NonCon=     1 RMS=1.18D-04 Max=1.87D-03 NDo=     1
 LinEq1:  Iter=  5 NonCon=     1 RMS=4.37D-05 Max=6.92D-04 NDo=     1
 LinEq1:  Iter=  6 NonCon=     1 RMS=1.96D-05 Max=2.31D-04 NDo=     1
 LinEq1:  Iter=  7 NonCon=     1 RMS=7.83D-06 Max=1.56D-04 NDo=     1
 LinEq1:  Iter=  8 NonCon=     1 RMS=3.34D-06 Max=3.33D-05 NDo=     1
 LinEq1:  Iter=  9 NonCon=     1 RMS=9.12D-07 Max=1.29D-05 NDo=     1
 LinEq1:  Iter= 10 NonCon=     1 RMS=1.79D-07 Max=1.94D-06 NDo=     1
 LinEq1:  Iter= 11 NonCon=     1 RMS=3.36D-08 Max=3.46D-07 NDo=     1
 LinEq1:  Iter= 12 NonCon=     1 RMS=8.06D-09 Max=1.26D-07 NDo=     1
 LinEq1:  Iter= 13 NonCon=     1 RMS=1.45D-09 Max=2.52D-08 NDo=     1
 LinEq1:  Iter= 14 NonCon=     1 RMS=2.63D-10 Max=3.70D-09 NDo=     1
 LinEq1:  Iter= 15 NonCon=     0 RMS=4.80D-11 Max=5.49D-10 NDo=     1
 Linear equations converged to 1.000D-10 1.000D-09 after    15 iterations.
 End of Minotr F.D. properties file   721 does not exist.
 End of Minotr F.D. properties file   722 does not exist.
 End of Minotr F.D. properties file   788 does not exist.
 Leave Link 1002 at Mon Feb 21 20:28:52 2022, MaxMem= 16106127360 cpu:              66.7 elap:               2.4
 (Enter /sw/contrib/gaussian/g16/B01/g16/l1102.exe)
 Use density number 2.
 Symmetrizing basis deriv contribution to polar:
 IMax=3 JMax=2 DiffMx= 0.00D+00
 Leave Link 1102 at Mon Feb 21 20:28:52 2022, MaxMem= 16106127360 cpu:               1.3 elap:               0.1
 (Enter /sw/contrib/gaussian/g16/B01/g16/l1110.exe)
 Forming Gx(P) for generalized density number  2 NAtomX=     5.
 Integral derivatives from FoFJK, PRISM(SPDF).
 Do as many integral derivatives as possible in FoFJK.
 G2DrvN: MDV=   16106126844.
 G2DrvN: will do     6 centers at a time, making    1 passes.
 Calling FoFCou, ICntrl=  3107 FMM=F I1Cent=   0 AccDes= 0.00D+00.
 FoFJK:  IHMeth= 1 ICntrl=    3107 DoSepK=F KAlg= 0 I1Cent=           0 FoldK=F
 IRaf=         0 NMat=       1 IRICut=       1 DoRegI=T DoRafI=F ISym2E= 1 IDoP0=0 IntGTp=1.
 FoFCou: FMM=F IPFlag=           0 FMFlag=      100000 FMFlg1=           0
         NFxFlg=           0 DoJE=F BraDBF=F KetDBF=F FulRan=T
         wScrn=  0.000000 ICntrl=      3107 IOpCl=  0 I1Cent=           0 NGrid=           0
         NMat0=    1 NMatS0=      1 NMatT0=    0 NMatD0=    1 NMtDS0=    0 NMtDT0=    0
 Petite list used in FoFCou.
 End of G2Drv F.D. properties file   721 does not exist.
 End of G2Drv F.D. properties file   722 does not exist.
 End of G2Drv F.D. properties file   788 does not exist.
 Leave Link 1110 at Mon Feb 21 20:28:55 2022, MaxMem= 16106127360 cpu:              83.8 elap:               3.0
 (Enter /sw/contrib/gaussian/g16/B01/g16/l1112.exe)
 MP22nd: MDV=   16106127360
 This link is doing NAtomX=     5 total of    18 degrees of freedom.
 Using ON3 I/O method in MakUI.
 Frozen-core window:  NFC=   4 NFV=   0.
 Using Ix for Sx.
 Use MO integrals over full window.
 Using OV2 memory method for fx*t*t/D, MaxI=    16 DoOO2=F NP=  28.
 R2 and R3 integrals will be kept in memory, NReq=   915591705.
 FoFCou: FMM=F IPFlag=           0 FMFlag=           0 FMFlg1=           0
         NFxFlg=           0 DoJE=F BraDBF=F KetDBF=F FulRan=T
         wScrn=  0.000000 ICntrl=       600 IOpCl=  0 I1Cent=           0 NGrid=           0
         NMat0=    1 NMatS0=      1 NMatT0=    0 NMatD0=    1 NMtDS0=    0 NMtDT0=    0
 Symmetry not used in FoFCou.
 DD1Dir will call FoFMem   1 times, MxPair=       272
 NAB=   136 NAA=     0 NBB=     0.
 Symmetry is being used.
 FoFJK:  IHMeth= 1 ICntrl=       0 DoSepK=F KAlg= 0 I1Cent=           0 FoldK=F
 IRaf=         0 NMat=      18 IRICut=      45 DoRegI=T DoRafI=T ISym2E= 2 IDoP0=3 IntGTp=3.
 Discarding MO integrals.
 Leave Link 1112 at Mon Feb 21 20:29:30 2022, MaxMem= 16106127360 cpu:             978.9 elap:              35.3
 (Enter /sw/contrib/gaussian/g16/B01/g16/l601.exe)
 Copying SCF densities to generalized density rwf, IOpCl= 0 IROHF=0.

 **********************************************************************

            Population analysis using the MP2 Density.

 **********************************************************************

 Orbital symmetries:
       Occupied  (A') (A') (A') (A') (A') (A') (A') (A') (A') (A')
                 (A") (A') (A") (A') (A") (A')
       Virtual   (A') (A") (A') (A') (A") (A') (A') (A') (A") (A')
                 (A") (A') (A') (A') (A") (A') (A') (A") (A') (A')
                 (A') (A') (A') (A') (A") (A') (A') (A") (A') (A')
                 (A") (A') (A") (A') (A') (A") (A') (A') (A") (A')
                 (A") (A') (A") (A') (A') (A") (A') (A') (A") (A')
                 (A") (A') (A') (A') (A") (A') (A") (A') (A") (A')
                 (A') (A') (A") (A') (A') (A") (A') (A") (A') (A')
                 (A") (A') (A') (A") (A") (A') (A') (A") (A') (A')
                 (A') (A") (A') (A") (A") (A') (A') (A") (A') (A')
                 (A") (A') (A') (A") (A') (A") (A') (A") (A') (A')
                 (A") (A') (A") (A') (A') (A") (A') (A') (A") (A')
                 (A") (A') (A') (A') (A") (A') (A') (A') (A") (A')
                 (A") (A') (A") (A') (A') (A") (A") (A') (A") (A')
                 (A') (A') (A') (A") (A") (A") (A') (A') (A') (A')
                 (A") (A') (A") (A') (A') (A") (A') (A') (A') (A')
                 (A") (A') (A') (A") (A') (A") (A') (A") (A') (A")
                 (A') (A") (A') (A") (A') (A") (A") (A') (A") (A')
                 (A") (A') (A") (A') (A") (A') (A") (A") (A') (A')
                 (A') (A') (A') (A') (A') (A') (A') (A') (A') (A')
                 (A')
 The electronic state is 1-A'.
 Alpha  occ. eigenvalues --  -20.68956 -20.68453 -20.65926 -15.81202  -1.62863
 Alpha  occ. eigenvalues --   -1.49580  -1.25384  -0.94731  -0.77346  -0.76067
 Alpha  occ. eigenvalues --   -0.71298  -0.68003  -0.62157  -0.58906  -0.48475
 Alpha  occ. eigenvalues --   -0.47140
 Alpha virt. eigenvalues --    0.02978   0.07340   0.08585   0.10172   0.13385
 Alpha virt. eigenvalues --    0.13403   0.14420   0.15467   0.17836   0.19411
 Alpha virt. eigenvalues --    0.20002   0.20637   0.22100   0.23590   0.23742
 Alpha virt. eigenvalues --    0.26611   0.29400   0.30411   0.31072   0.34337
 Alpha virt. eigenvalues --    0.34993   0.38744   0.42227   0.43172   0.52722
 Alpha virt. eigenvalues --    0.53001   0.55882   0.58178   0.62897   0.63808
 Alpha virt. eigenvalues --    0.67273   0.68489   0.70645   0.71129   0.72430
 Alpha virt. eigenvalues --    0.72974   0.74466   0.79186   0.79240   0.81013
 Alpha virt. eigenvalues --    0.81323   0.83208   0.86871   0.90882   0.92247
 Alpha virt. eigenvalues --    0.92684   0.95691   0.97874   0.98512   1.01674
 Alpha virt. eigenvalues --    1.05237   1.05532   1.08355   1.11844   1.14174
 Alpha virt. eigenvalues --    1.18984   1.22158   1.23351   1.33927   1.35083
 Alpha virt. eigenvalues --    1.38715   1.45379   1.48808   1.50969   1.53819
 Alpha virt. eigenvalues --    1.56692   1.57960   1.61368   1.66551   1.66994
 Alpha virt. eigenvalues --    1.70310   1.79345   1.83079   1.83491   1.87982
 Alpha virt. eigenvalues --    1.91002   1.95470   1.99364   2.00567   2.07800
 Alpha virt. eigenvalues --    2.12117   2.13259   2.15052   2.22475   2.26501
 Alpha virt. eigenvalues --    2.26525   2.29011   2.31502   2.34587   2.38665
 Alpha virt. eigenvalues --    2.42573   2.43020   2.45432   2.46358   2.47761
 Alpha virt. eigenvalues --    2.50239   2.59029   2.59778   2.62202   2.62700
 Alpha virt. eigenvalues --    2.63538   2.66932   2.75973   2.82742   2.85794
 Alpha virt. eigenvalues --    2.88697   2.89551   2.92628   2.95949   3.02643
 Alpha virt. eigenvalues --    3.06726   3.12355   3.20520   3.22819   3.31779
 Alpha virt. eigenvalues --    3.34254   3.51951   3.64393   3.83919   3.84624
 Alpha virt. eigenvalues --    4.14942   4.16393   4.18473   4.27107   4.35234
 Alpha virt. eigenvalues --    4.39416   4.46486   4.52041   4.66881   4.71170
 Alpha virt. eigenvalues --    4.80798   4.82597   4.83043   4.89548   5.02239
 Alpha virt. eigenvalues --    5.07803   5.10572   5.14160   5.18084   5.24464
 Alpha virt. eigenvalues --    5.27267   5.30764   5.33058   5.36081   5.60759
 Alpha virt. eigenvalues --    5.68303   5.77499   5.83151   5.95573   6.17012
 Alpha virt. eigenvalues --    6.30985   6.33889   6.39525   6.49362   6.50550
 Alpha virt. eigenvalues --    6.61459   6.66876   6.70186   6.75871   6.76443
 Alpha virt. eigenvalues --    6.83615   6.90042   7.01540   7.05800   7.05812
 Alpha virt. eigenvalues --    7.09097   7.12725   7.15126   7.18239   7.22922
 Alpha virt. eigenvalues --    7.24300   7.31011   7.33609   7.35151   7.40497
 Alpha virt. eigenvalues --    7.43249   7.48528   7.60922   7.62709   7.63415
 Alpha virt. eigenvalues --    7.66746   7.79415   7.89618   8.09544   8.31701
 Alpha virt. eigenvalues --    8.40991   8.54570  13.40164  14.43853  15.16448
 Alpha virt. eigenvalues --   16.32560
          Condensed to atoms (all electrons):
               1          2          3          4          5
     1  H    0.589679   0.128395   0.020049   0.012458  -0.000651
     2  O    0.128395   8.322306  -0.173731  -0.090456   0.015529
     3  O    0.020049  -0.173731   8.474406  -0.132335  -0.039983
     4  N    0.012458  -0.090456  -0.132335   6.974256  -0.056244
     5  O   -0.000651   0.015529  -0.039983  -0.056244   8.273288
 Mulliken charges:
               1
     1  H    0.250070
     2  O   -0.202044
     3  O   -0.148407
     4  N    0.292321
     5  O   -0.191940
 Sum of Mulliken charges =  -0.00000
 Mulliken charges with hydrogens summed into heavy atoms:
               1
     2  O    0.048026
     3  O   -0.148407
     4  N    0.292321
     5  O   -0.191940
 APT charges:
               1
     1  H    0.298880
     2  O   -0.288170
     3  O   -0.499026
     4  N    0.884449
     5  O   -0.396133
 Sum of APT charges =  -0.00000
 APT charges with hydrogens summed into heavy atoms:
               1
     2  O    0.010709
     3  O   -0.499026
     4  N    0.884449
     5  O   -0.396133
 Electronic spatial extent (au):  <R**2>=            252.3720
 Charge=             -0.0000 electrons
 Dipole moment (field-independent basis, Debye):
    X=              0.4869    Y=              1.3359    Z=              0.0000  Tot=              1.4219
 Quadrupole moment (field-independent basis, Debye-Ang):
   XX=            -22.4393   YY=            -18.6158   ZZ=            -22.0010
   XY=              3.2751   XZ=             -0.0000   YZ=             -0.0000
 Traceless Quadrupole moment (field-independent basis, Debye-Ang):
   XX=             -1.4206   YY=              2.4029   ZZ=             -0.9823
   XY=              3.2751   XZ=             -0.0000   YZ=             -0.0000
 Octapole moment (field-independent basis, Debye-Ang**2):
  XXX=              2.8165  YYY=             11.1603  ZZZ=             -0.0000  XYY=              7.8587
  XXY=              6.5606  XXZ=              0.0000  XZZ=             -1.5970  YZZ=             -0.8731
  YYZ=              0.0000  XYZ=              0.0000
 Hexadecapole moment (field-independent basis, Debye-Ang**3):
 XXXX=           -158.2292 YYYY=            -89.3600 ZZZZ=            -18.2328 XXXY=            -36.4739
 XXXZ=             -0.0000 YYYX=            -30.5642 YYYZ=             -0.0000 ZZZX=             -0.0000
 ZZZY=             -0.0000 XXYY=            -33.8457 XXZZ=            -30.8378 YYZZ=            -20.5877
 XXYZ=             -0.0000 YYXZ=             -0.0000 ZZXY=            -14.9904
 N-N= 1.170427291963D+02 E-N=-8.962108782097D+02  KE= 2.802214419665D+02
 Symmetry A'   KE= 2.662476551776D+02
 Symmetry A"   KE= 1.397378678892D+01
  Exact polarizability:  33.943   9.411  30.178   0.000   0.000  17.917
 Approx polarizability:  28.885   5.061  23.473   0.000   0.000  15.498
 No NMR shielding tensors so no spin-rotation constants.
 Leave Link  601 at Mon Feb 21 20:29:30 2022, MaxMem= 16106127360 cpu:               4.3 elap:               0.2
 (Enter /sw/contrib/gaussian/g16/B01/g16/l701.exe)
 ... and contract with generalized density number  2.
 Compute integral second derivatives.
 Leave Link  701 at Mon Feb 21 20:29:31 2022, MaxMem= 16106127360 cpu:               5.6 elap:               0.2
 (Enter /sw/contrib/gaussian/g16/B01/g16/l702.exe)
 L702 exits ... SP integral derivatives will be done elsewhere.
 Leave Link  702 at Mon Feb 21 20:29:31 2022, MaxMem= 16106127360 cpu:               1.4 elap:               0.1
 (Enter /sw/contrib/gaussian/g16/B01/g16/l703.exe)
 Integral derivatives from FoFJK, PRISM(SPDF).
 Compute integral second derivatives, UseDBF=F ICtDFT=           0.
 Calling FoFJK, ICntrl=  10100127 FMM=F ISym2X=1 I1Cent= 0 IOpClX= 0 NMat=1 NMatS=1 NMatT=0.
 FoFJK:  IHMeth= 1 ICntrl=10100127 DoSepK=F KAlg= 0 I1Cent=           0 FoldK=F
 IRaf=         0 NMat=       1 IRICut=       1 DoRegI=T DoRafI=F ISym2E= 1 IDoP0=0 IntGTp=1.
 FoFCou: FMM=F IPFlag=           0 FMFlag=      100000 FMFlg1=         800
         NFxFlg=           0 DoJE=F BraDBF=F KetDBF=F FulRan=T
         wScrn=  0.000000 ICntrl=  10100127 IOpCl=  0 I1Cent=           0 NGrid=           0
         NMat0=    1 NMatS0=      1 NMatT0=    0 NMatD0=    1 NMtDS0=    0 NMtDT0=    0
 Petite list used in FoFCou.
 Leave Link  703 at Mon Feb 21 20:29:46 2022, MaxMem= 16106127360 cpu:             422.0 elap:              15.1
 (Enter /sw/contrib/gaussian/g16/B01/g16/l716.exe)
 Dipole        = 1.91568118D-01 5.25591425D-01 1.19999877D-32
 Polarizability= 3.39426467D+01 9.41081008D+00 3.01777972D+01
                 6.02065547D-31 7.00577286D-31 1.79171455D+01
 Full mass-weighted force constant matrix:
 Low frequencies --- -268.5098  -74.5491  -40.9787  -28.8308   -0.0015   -0.0007
 Low frequencies ---    0.0012  210.8674  336.7681
 ******    1 imaginary frequencies (negative Signs) ****** 
 Diagonal vibrational polarizability:
       13.9316016      24.7622347      47.1472531
 Harmonic frequencies (cm**-1), IR intensities (KM/Mole), Raman scattering
 activities (A**4/AMU), depolarization ratios for plane and unpolarized
 incident light, reduced masses (AMU), force constants (mDyne/A),
 and normal coordinates:
                      1                      2                      3
                     A"                     A"                     A'
 Frequencies --   -268.4379               208.7809               336.6889
 Red. masses --      1.1455                 9.9913                 8.6818
 Frc consts  --      0.0486                 0.2566                 0.5799
 IR Inten    --    124.3443                 1.1492                 3.4037
  Atom  AN      X      Y      Z        X      Y      Z        X      Y      Z
     1   1    -0.00  -0.00   1.00    -0.00   0.00  -0.61     0.53  -0.44  -0.00
     2   8    -0.00  -0.00  -0.07    -0.00   0.00  -0.30    -0.10  -0.38  -0.00
     3   8    -0.00  -0.00  -0.04    -0.00  -0.00   0.32    -0.15   0.42   0.00
     4   7     0.00   0.00   0.06     0.00   0.00   0.51     0.05   0.27   0.00
     5   8     0.00   0.00  -0.01     0.00   0.00  -0.43     0.17  -0.25  -0.00
                      4                      5                      6
                     A'                     A'                     A'
 Frequencies --    454.8189               785.0506               967.8776
 Red. masses --     12.2388                12.7931                15.3984
 Frc consts  --      1.4916                 4.6454                 8.4990
 IR Inten    --    200.4323               171.0002                21.8970
  Atom  AN      X      Y      Z        X      Y      Z        X      Y      Z
     1   1     0.42   0.18  -0.00    -0.35   0.19   0.00    -0.17  -0.04   0.00
     2   8     0.32   0.19  -0.00     0.42   0.09  -0.00    -0.52   0.03  -0.00
     3   8     0.17   0.45   0.00    -0.06  -0.27   0.00     0.75  -0.02   0.00
     4   7    -0.35  -0.40   0.00    -0.14   0.62   0.00    -0.12   0.24   0.00
     5   8    -0.22  -0.31  -0.00    -0.21  -0.37  -0.00    -0.11  -0.22  -0.00
                      7                      8                      9
                     A'                     A'                     A'
 Frequencies --   1371.6856              1713.6435              3778.6495
 Red. masses --      1.1311                13.6069                 1.0675
 Frc consts  --      1.2539                23.5423                 8.9807
 IR Inten    --    150.2409               154.0082                82.1134
  Atom  AN      X      Y      Z        X      Y      Z        X      Y      Z
     1   1     0.99  -0.05  -0.00    -0.30   0.00   0.00     0.10   0.99   0.00
     2   8    -0.03   0.05  -0.00    -0.00  -0.03   0.00    -0.01  -0.06  -0.00
     3   8    -0.02  -0.05   0.00     0.00   0.14  -0.00     0.00   0.00  -0.00
     4   7     0.02   0.01   0.00     0.72  -0.05  -0.00    -0.00  -0.00   0.00
     5   8    -0.03  -0.01  -0.00    -0.61  -0.07   0.00     0.00   0.00   0.00

 -------------------
 - Thermochemistry -
 -------------------
 Temperature   298.150 Kelvin.  Pressure   1.00000 Atm.
 Atom     1 has atomic number  1 and mass   1.00783
 Atom     2 has atomic number  8 and mass  15.99491
 Atom     3 has atomic number  8 and mass  15.99491
 Atom     4 has atomic number  7 and mass  14.00307
 Atom     5 has atomic number  8 and mass  15.99491
 Molecular mass:    62.99564 amu.
 Principal axes and moments of inertia in atomic units:
                           1         2         3
     Eigenvalues --    32.81776 359.19912 392.01688
           X            0.81088  -0.58521   0.00000
           Y            0.58521   0.81088   0.00000
           Z            0.00000  -0.00000   1.00000
 This molecule is an asymmetric top.
 Rotational symmetry number  1.
 Rotational temperatures (Kelvin)      2.63924     0.24113     0.22094
 Rotational constants (GHZ):          54.99282     5.02435     4.60373
    1 imaginary frequencies ignored.
 Zero-point vibrational energy      57523.6 (Joules/Mol)
                                   13.74847 (Kcal/Mol)
 Warning -- explicit consideration of   3 degrees of freedom as
           vibrations may cause significant error
 Vibrational temperatures:    300.39   484.42   654.38  1129.51  1392.56
          (Kelvin)           1973.55  2465.55  5436.63
 
 Zero-point correction=                           0.021910 (Hartree/Particle)
 Thermal correction to Energy=                    0.026060
 Thermal correction to Enthalpy=                  0.027004
 Thermal correction to Gibbs Free Energy=        -0.004262
 Sum of electronic and zero-point Energies=           -280.424775
 Sum of electronic and thermal Energies=              -280.420624
 Sum of electronic and thermal Enthalpies=            -280.419680
 Sum of electronic and thermal Free Energies=         -280.450947
 
                     E (Thermal)             CV                S
                      KCal/Mol        Cal/Mol-Kelvin    Cal/Mol-Kelvin
 Total                   16.353             11.982             65.806
 Electronic               0.000              0.000              0.000
 Translational            0.889              2.981             38.341
 Rotational               0.889              2.981             23.051
 Vibrational             14.576              6.021              4.415
 Vibration     1          0.642              1.827              2.054
 Vibration     2          0.717              1.602              1.228
 Vibration     3          0.813              1.350              0.781
                       Q            Log10(Q)             Ln(Q)
 Total Bot       0.913102D+02          1.960519          4.514262
 Total V=0       0.109199D+13         12.038219         27.719024
 Vib (Bot)       0.190932D-09         -9.719120        -22.379102
 Vib (Bot)    1  0.951777D+00         -0.021465         -0.049425
 Vib (Bot)    2  0.552653D+00         -0.257548         -0.593026
 Vib (Bot)    3  0.375566D+00         -0.425313         -0.979320
 Vib (V=0)       0.228339D+01          0.358579          0.825660
 Vib (V=0)    1  0.157512D+01          0.197313          0.454330
 Vib (V=0)    2  0.124527D+01          0.095263          0.219351
 Vib (V=0)    3  0.112534D+01          0.051284          0.118085
 Electronic      0.100000D+01          0.000000          0.000000
 Translational   0.196526D+08          7.293420         16.793719
 Rotational      0.243344D+05          4.386220         10.099645
 
                                                                title
                                                             IR Spectrum
 
     3                                                                     1          1                                              
     7                                                                     7          3             9     7          4   3   2       
     7                                                                     1          7             6     8          5   3   0       
     9                                                                     4          2             8     5          5   7   9       
 
     X                                                                     X          X             X     X          X   X   X       
     X                                                                     X          X             X     X          X               
     X                                                                     X          X                   X          X               
     X                                                                     X          X                   X          X               
     X                                                                     X          X                   X          X               
     X                                                                     X          X                   X          X               
     X                                                                     X          X                   X          X               
     X                                                                     X          X                   X          X               
                                                                           X          X                   X          X               
                                                                           X          X                   X          X               
                                                                           X          X                   X          X               
                                                                           X          X                   X          X               
                                                                           X          X                   X          X               
                                                                           X          X                   X          X               
                                                                           X          X                   X          X               
                                                                                                          X          X               
                                                                                                          X          X               
                                                                                                                     X               
                                                                                                                     X               
                                                                                                                     X               
 
 ***** Axes restored to original set *****
 -------------------------------------------------------------------
 Center     Atomic                   Forces (Hartrees/Bohr)
 Number     Number              X              Y              Z
 -------------------------------------------------------------------
      1        1           0.000039552    0.000000000    0.000040128
      2        8           0.000147546    0.000000000   -0.000053356
      3        8          -0.000685333   -0.000000000   -0.001495661
      4        7          -0.008298214   -0.000000000   -0.001143419
      5        8           0.008796448    0.000000000    0.002652309
 -------------------------------------------------------------------
 Cartesian Forces:  Max     0.008796448 RMS     0.003238461
 -----------------------------------------------------------------------------------------------
                       Internal Coordinate Forces (Hartree/Bohr or radian)
  Cent   Atom   N1       Length/X         N2         Alpha/Y        N3         Beta/Z          J
 -----------------------------------------------------------------------------------------------
      1  H 
      2  O        1  -0.000040(     1)
      3  O        2  -0.000184(     2)      1  -0.000072(     5)
      4  N        3   0.001545(     3)      2   0.000176(     6)      1  -0.000000(     8)     0
      5  O        4   0.009179(     4)      3   0.000851(     7)      2   0.000000(     9)     0
 -----------------------------------------------------------------------------------------------
 Internal  Forces:  Max     0.009179473 RMS     0.003117073
 Force constants in Cartesian coordinates: 
                1             2             3             4             5 
      1  0.646205D-01
      2  0.000000D+00 -0.232893D-02
      3  0.532750D-02  0.000000D+00  0.512348D+00
      4 -0.357273D-01  0.000000D+00 -0.163486D-01  0.272967D+00
      5  0.000000D+00  0.301391D-02  0.000000D+00  0.000000D+00  0.214430D-02
      6  0.481704D-01  0.000000D+00 -0.508514D+00  0.337050D-01  0.000000D+00
      7 -0.184025D-01  0.000000D+00  0.125714D-01 -0.220424D+00  0.000000D+00
      8  0.000000D+00  0.997001D-03  0.000000D+00  0.000000D+00 -0.660226D-02
      9 -0.531401D-01  0.000000D+00 -0.490402D-03 -0.196324D-01  0.000000D+00
     10 -0.925155D-02  0.000000D+00 -0.490827D-02 -0.172013D-01  0.000000D+00
     11  0.000000D+00 -0.271701D-02  0.000000D+00  0.000000D+00 -0.492459D-02
     12  0.545945D-02  0.000000D+00 -0.474411D-02  0.116736D-01  0.000000D+00
     13 -0.123913D-02  0.000000D+00  0.335795D-02  0.385873D-03  0.000000D+00
     14  0.000000D+00  0.103503D-02  0.000000D+00  0.000000D+00  0.636864D-02
     15 -0.581719D-02  0.000000D+00  0.140101D-02 -0.939761D-02  0.000000D+00
                6             7             8             9            10 
      6  0.594464D+00
      7 -0.212369D-01  0.341927D+00
      8  0.000000D+00  0.000000D+00  0.373835D-02
      9 -0.784726D-01  0.366464D-01  0.000000D+00  0.182189D+00
     10 -0.525137D-01 -0.780732D-01  0.000000D+00  0.176630D+00  0.862830D+00
     11  0.000000D+00  0.000000D+00  0.890548D-02  0.000000D+00  0.000000D+00
     12  0.174738D-01  0.635549D-01  0.000000D+00 -0.821557D-01 -0.107906D-01
     13 -0.812479D-02 -0.250270D-01  0.000000D+00 -0.140504D+00 -0.758304D+00
     14  0.000000D+00  0.000000D+00 -0.703857D-02  0.000000D+00  0.000000D+00
     15 -0.249505D-01 -0.915358D-01  0.000000D+00 -0.210698D-01 -0.108417D+00
               11            12            13            14            15 
     11  0.447533D-02
     12  0.000000D+00  0.186072D+00
     13  0.000000D+00 -0.698973D-01  0.784184D+00
     14 -0.573922D-02  0.000000D+00  0.000000D+00  0.537412D-02
     15  0.000000D+00 -0.116646D+00  0.215168D+00  0.000000D+00  0.161265D+00
 Force constants in internal coordinates: 
                1             2             3             4             5 
      1  0.512348D+00
      2 -0.104178D-01  0.281618D+00
      3  0.345895D-02  0.242308D-02  0.118414D+00
      4 -0.360057D-02  0.594412D-02  0.155515D+00  0.849272D+00
      5  0.979478D-02  0.653894D-01  0.222787D-02  0.484104D-02  0.216595D+00
      6  0.465751D-02  0.590525D-01  0.409359D-01  0.219962D-01  0.311477D-01
      7 -0.115368D-02  0.379995D-01  0.332577D-01  0.853511D-01  0.214811D-01
      8  0.000000D+00  0.000000D+00  0.000000D+00  0.000000D+00  0.000000D+00
      9  0.000000D+00  0.000000D+00  0.000000D+00  0.000000D+00  0.000000D+00
                6             7             8             9 
      6  0.282240D+00
      7  0.966862D-01  0.486454D+00
      8  0.000000D+00  0.000000D+00 -0.773437D-02
      9  0.000000D+00  0.000000D+00 -0.390866D-02  0.410623D-01
 Leave Link  716 at Mon Feb 21 20:29:46 2022, MaxMem= 16106127360 cpu:               0.7 elap:               0.0
 (Enter /sw/contrib/gaussian/g16/B01/g16/l103.exe)

 GradGradGradGradGradGradGradGradGradGradGradGradGradGradGradGradGradGrad
 Berny optimization.
 Search for a local minimum.
 Step number   1 out of a maximum of    2
 All quantities printed in internal units (Hartrees-Bohrs-Radians)
 Second derivative matrix not updated -- analytic derivatives used.
 The second derivative matrix:
                          r1        r2        r3        r4        a1
           r1           0.51235
           r2          -0.01042   0.28162
           r3           0.00346   0.00242   0.11841
           r4          -0.00360   0.00594   0.15552   0.84927
           a1           0.00979   0.06539   0.00223   0.00484   0.21659
           a2           0.00466   0.05905   0.04094   0.02200   0.03115
           a3          -0.00115   0.03800   0.03326   0.08535   0.02148
           d1           0.00000  -0.00000  -0.00000  -0.00000  -0.00000
           d2          -0.00000   0.00000   0.00000   0.00000   0.00000
                          a2        a3        d1        d2
           a2           0.28224
           a3           0.09669   0.48645
           d1          -0.00000  -0.00000  -0.00773
           d2          -0.00000  -0.00000  -0.00391   0.04106
 ITU=  0
     Eigenvalues ---   -0.00805   0.04137   0.07986   0.17522   0.22499
     Eigenvalues ---    0.32536   0.51303   0.52271   0.90576
 Eigenvalue     1 is  -8.05D-03 should be greater than     0.000000 Eigenvector:
                          d1        d2        a3        a2        r3
   1                    0.99685   0.07934   0.00000   0.00000  -0.00000
                          r4        a1        r2        r1
   1                    0.00000  -0.00000  -0.00000  -0.00000
 Angle between quadratic step and forces=  18.73 degrees.
 Linear search not attempted -- first point.
 Variable       Old X    -DE/DX   Delta X   Delta X   Delta X     New X
                                 (Linear)    (Quad)   (Total)
    r1        1.83110  -0.00004   0.00000  -0.00000  -0.00000   1.83110
    r2        2.74940  -0.00018   0.00000  -0.00083  -0.00083   2.74857
    r3        2.75670   0.00154   0.00000  -0.00158  -0.00158   2.75513
    r4        2.20176   0.00918   0.00000   0.01110   0.01110   2.21287
    a1        1.70335  -0.00007   0.00000  -0.00034  -0.00034   1.70301
    a2        1.78543   0.00018   0.00000   0.00022   0.00022   1.78565
    a3        1.90362   0.00085   0.00000  -0.00005  -0.00005   1.90357
    d1        3.14159  -0.00000   0.00000  -0.00000   0.00000   3.14159
    d2        3.14159   0.00000   0.00000   0.00000   0.00000   3.14159
         Item               Value     Threshold  Converged?
 Maximum Force            0.009179     0.000450     NO 
 RMS     Force            0.003117     0.000300     NO 
 Maximum Displacement     0.011105     0.001800     NO 
 RMS     Displacement     0.003751     0.001200     NO 
 Predicted change in Energy=-4.983591D-05
                       ----------------------------
                       ! Non-Optimized Parameters !
                       ! (Angstroms and Degrees)  !
 ----------------------                            ----------------------
 !      Name          Value   Derivative information (Atomic Units)     !
 ------------------------------------------------------------------------
 !       r1          0.969    -DE/DX =    0.0                           !
 !       r2          1.4545   -DE/DX =   -0.0002                        !
 !       r3          1.4579   -DE/DX =    0.0015                        !
 !       r4          1.171    -DE/DX =    0.0092                        !
 !       a1         97.5754   -DE/DX =   -0.0001                        !
 !       a2        102.3101   -DE/DX =    0.0002                        !
 !       a3        109.0665   -DE/DX =    0.0009                        !
 !       d1        180.0      -DE/DX =    0.0                           !
 !       d2        180.0      -DE/DX =    0.0                           !
 ------------------------------------------------------------------------
 GradGradGradGradGradGradGradGradGradGradGradGradGradGradGradGradGradGrad

 Leave Link  103 at Mon Feb 21 20:29:46 2022, MaxMem= 16106127360 cpu:               1.7 elap:               0.1
 (Enter /sw/contrib/gaussian/g16/B01/g16/l9999.exe)

 ----------------------------------------------------------------------

 Electric dipole moment (input orientation):
 (Debye = 10**-18 statcoulomb cm , SI units = C m)
                  (au)            (Debye)         (10**-30 SI)
   Tot        0.559415D+00      0.142189D+01      0.474291D+01
   x         -0.137972D+00     -0.350690D+00     -0.116978D+01
   y          0.000000D+00      0.000000D+00      0.000000D+00
   z         -0.542133D+00     -0.137796D+01     -0.459640D+01

 Dipole polarizability, Alpha (input orientation).
 (esu units = cm**3 , SI units = C**2 m**2 J**-1)
 Alpha(0;0):
               (au)            (10**-24 esu)      (10**-40 SI)
   iso        0.273459D+02      0.405224D+01      0.450872D+01
   aniso      0.218254D+02      0.323419D+01      0.359852D+01
   xx         0.320296D+02      0.474629D+01      0.528096D+01
   yx         0.000000D+00      0.000000D+00      0.000000D+00
   yy         0.179171D+02      0.265505D+01      0.295414D+01
   zx         0.959718D+01      0.142216D+01      0.158236D+01
   zy         0.000000D+00      0.000000D+00      0.000000D+00
   zz         0.320909D+02      0.475538D+01      0.529107D+01

 ----------------------------------------------------------------------

 Dipole orientation:
     1          0.00000000          0.00000000         -0.00000000
     8         -0.45161611          0.00000000         -1.77453215
     8          2.09984951          0.00000000         -2.79884569
     7          1.64125612          0.00000000         -5.51713558
     8          3.57352862          0.00000000         -6.57263863

 Electric dipole moment (dipole orientation):
 (Debye = 10**-18 statcoulomb cm , SI units = C m)
                  (au)            (Debye)         (10**-30 SI)
   Tot        0.559415D+00      0.142189D+01      0.474291D+01
   x          0.000000D+00      0.000000D+00      0.000000D+00
   y          0.000000D+00      0.000000D+00      0.000000D+00
   z          0.559415D+00      0.142189D+01      0.474291D+01

 Dipole polarizability, Alpha (dipole orientation).
 (esu units = cm**3 , SI units = C**2 m**2 J**-1)
 Alpha(0;0):
               (au)            (10**-24 esu)      (10**-40 SI)
   iso        0.273459D+02      0.405224D+01      0.450872D+01
   aniso      0.218254D+02      0.323419D+01      0.359852D+01
   xx         0.274455D+02      0.406700D+01      0.452515D+01
   yx         0.000000D+00      0.000000D+00      0.000000D+00
   yy         0.179171D+02      0.265505D+01      0.295414D+01
   zx        -0.841494D+01     -0.124697D+01     -0.138744D+01
   zy         0.000000D+00      0.000000D+00      0.000000D+00
   zz         0.366749D+02      0.543467D+01      0.604688D+01

 ----------------------------------------------------------------------
 1\1\GINC-N2228\Freq\RMP2-FC\Aug-CC-pVTZ\H1N1O3\CGAVINH\21-Feb-2022\1\\
 #p freq mp2/aug-cc-pvtz density=current\\title\\0,1\H\O,1,r1\O,2,r2,1,
 a1\N,3,r3,2,a2,1,d1,0\O,4,r4,3,a3,2,d2,0\\r1=0.96897556\r2=1.45491931\
 r3=1.45878406\r4=1.16512321\a1=97.59494903\a2=102.29752444\a3=109.0695
 5123\d1=180.\d2=180.\\Version=ES64L-G16RevB.01\State=1-A'\HF=-279.5025
 929\MP2=-280.4466845\RMSD=3.641e-09\RMSF=3.238e-03\ZeroPoint=0.0219096
 \Thermal=0.0260601\Dipole=-0.1379722,0.,-0.5421332\DipoleDeriv=0.26635
 02,0.,0.048201,0.,0.3553667,0.,0.081772,0.,0.2749225,-0.3270329,0.,-0.
 2058024,0.,-0.3147555,0.,-0.1105228,0.,-0.2227226,-0.0501414,0.,0.1470
 839,0.,-0.0890683,0.,-0.7536451,0.,-1.3578677,0.9102397,0.,0.9230155,0
 .,0.0663889,0.,0.9281915,0.,1.6767181,-0.7994156,0.,-0.912498,0.,-0.01
 79318,0.,-0.1457956,0.,-0.3710503\Polar=32.0295604,0.,17.9171455,9.597
 1834,0.,32.0908835\Quadrupole=-1.5128755,-0.7303463,2.2432218,0.,2.102
 856,0.\PG=CS [SG(H1N1O3)]\NImag=1\\0.06462050,0.,-0.00232893,0.0053275
 0,0.,0.51234784,-0.03572730,0.,-0.01634862,0.27296706,0.,0.00301391,0.
 ,0.,0.00214430,0.04817039,0.,-0.50851433,0.03370498,0.,0.59446366,-0.0
 1840252,0.,0.01257143,-0.22042435,0.,-0.02123692,0.34192699,0.,0.00099
 700,0.,0.,-0.00660226,0.,0.,0.00373835,-0.05314015,0.,-0.00049040,-0.0
 1963236,0.,-0.07847259,0.03664642,0.,0.18218851,-0.00925155,0.,-0.0049
 0827,-0.01720129,0.,-0.05251367,-0.07807316,0.,0.17663003,0.86282991,0
 .,-0.00271701,0.,0.,-0.00492459,0.,0.,0.00890548,0.,0.,0.00447533,0.00
 545945,0.,-0.00474411,0.01167361,0.,0.01747377,0.06355488,0.,-0.082155
 73,-0.01079061,0.,0.18607170,-0.00123913,0.,0.00335795,0.00038587,0.,-
 0.00812479,-0.02502696,0.,-0.14050393,-0.75830392,0.,-0.06989732,0.784
 18414,0.,0.00103503,0.,0.,0.00636864,0.,0.,-0.00703857,0.,0.,-0.005739
 22,0.,0.,0.00537412,-0.00581719,0.,0.00140101,-0.00939761,0.,-0.024950
 50,-0.09153581,0.,-0.02106978,-0.10841747,0.,-0.11664563,0.21516809,0.
 ,0.16126490\\-0.00003955,0.,-0.00004013,-0.00014755,0.,0.00005336,0.00
 068533,0.,0.00149566,0.00829821,0.,0.00114342,-0.00879645,0.,-0.002652
 31\\\@


 FLOATING POINT NUMBERS ARE LIKE SANDPILES:
 EVERY TIME THAT YOU MOVE ONE, YOU LOSE A LITTLE SAND 
 AND YOU PICK UP A LITTLE DIRT.
 Job cpu time:       0 days  2 hours  0 minutes 45.3 seconds.
 Elapsed time:       0 days  0 hours  4 minutes 21.8 seconds.
 File lengths (MBytes):  RWF=   7239 Int=      0 D2E=      0 Chk=      8 Scr=      1
 Normal termination of Gaussian 16 at Mon Feb 21 20:29:47 2022.
