 Entering Gaussian System, Link 0=g16
 Input=hoono_d2_-3p71211.gjf
 Output=hoono_d2_-3p71211.log
 Initial command:
 /sw/contrib/gaussian/g16/B01/g16/l1.exe "/scr/Gau-27661.inp" -scrdir="/scr/"
 Entering Link 1 = /sw/contrib/gaussian/g16/B01/g16/l1.exe PID=     27662.
  
 Copyright (c) 1988-2017, Gaussian, Inc.  All Rights Reserved.
  
 This is part of the Gaussian(R) 16 program.  It is based on
 the Gaussian(R) 09 system (copyright 2009, Gaussian, Inc.),
 the Gaussian(R) 03 system (copyright 2003, Gaussian, Inc.),
 the Gaussian(R) 98 system (copyright 1998, Gaussian, Inc.),
 the Gaussian(R) 94 system (copyright 1995, Gaussian, Inc.),
 the Gaussian 92(TM) system (copyright 1992, Gaussian, Inc.),
 the Gaussian 90(TM) system (copyright 1990, Gaussian, Inc.),
 the Gaussian 88(TM) system (copyright 1988, Gaussian, Inc.),
 the Gaussian 86(TM) system (copyright 1986, Carnegie Mellon
 University), and the Gaussian 82(TM) system (copyright 1983,
 Carnegie Mellon University). Gaussian is a federally registered
 trademark of Gaussian, Inc.
  
 This software contains proprietary and confidential information,
 including trade secrets, belonging to Gaussian, Inc.
  
 This software is provided under written license and may be
 used, copied, transmitted, or stored only in accord with that
 written license.
  
 The following legend is applicable only to US Government
 contracts under FAR:
  
                    RESTRICTED RIGHTS LEGEND
  
 Use, reproduction and disclosure by the US Government is
 subject to restrictions as set forth in subparagraphs (a)
 and (c) of the Commercial Computer Software - Restricted
 Rights clause in FAR 52.227-19.
  
 Gaussian, Inc.
 340 Quinnipiac St., Bldg. 40, Wallingford CT 06492
  
  
 ---------------------------------------------------------------
 Warning -- This program may not be used in any manner that
 competes with the business of Gaussian, Inc. or will provide
 assistance to any competitor of Gaussian, Inc.  The licensee
 of this program is prohibited from giving any competitor of
 Gaussian, Inc. access to this program.  By using this program,
 the user acknowledges that Gaussian, Inc. is engaged in the
 business of creating and licensing software in the field of
 computational chemistry and represents and warrants to the
 licensee that it is not a competitor of Gaussian, Inc. and that
 it will not use this program in any manner prohibited above.
 ---------------------------------------------------------------
  

 Cite this work as:
 Gaussian 16, Revision B.01,
 M. J. Frisch, G. W. Trucks, H. B. Schlegel, G. E. Scuseria, 
 M. A. Robb, J. R. Cheeseman, G. Scalmani, V. Barone, 
 G. A. Petersson, H. Nakatsuji, X. Li, M. Caricato, A. V. Marenich, 
 J. Bloino, B. G. Janesko, R. Gomperts, B. Mennucci, H. P. Hratchian, 
 J. V. Ortiz, A. F. Izmaylov, J. L. Sonnenberg, D. Williams-Young, 
 F. Ding, F. Lipparini, F. Egidi, J. Goings, B. Peng, A. Petrone, 
 T. Henderson, D. Ranasinghe, V. G. Zakrzewski, J. Gao, N. Rega, 
 G. Zheng, W. Liang, M. Hada, M. Ehara, K. Toyota, R. Fukuda, 
 J. Hasegawa, M. Ishida, T. Nakajima, Y. Honda, O. Kitao, H. Nakai, 
 T. Vreven, K. Throssell, J. A. Montgomery, Jr., J. E. Peralta, 
 F. Ogliaro, M. J. Bearpark, J. J. Heyd, E. N. Brothers, K. N. Kudin, 
 V. N. Staroverov, T. A. Keith, R. Kobayashi, J. Normand, 
 K. Raghavachari, A. P. Rendell, J. C. Burant, S. S. Iyengar, 
 J. Tomasi, M. Cossi, J. M. Millam, M. Klene, C. Adamo, R. Cammi, 
 J. W. Ochterski, R. L. Martin, K. Morokuma, O. Farkas, 
 J. B. Foresman, and D. J. Fox, Gaussian, Inc., Wallingford CT, 2016.
 
 ******************************************
 Gaussian 16:  ES64L-G16RevB.01 20-Dec-2017
                 6-Mar-2022 
 ******************************************
 %nproc=28
 Will use up to   28 processors via shared memory.
 %mem=120GB
 %chk=hoono_d2_-3p71211.chk
 ---------------------------------------
 #p freq mp2/aug-cc-pvtz density=current
 ---------------------------------------
 1/10=4,30=1,38=1/1,3;
 2/12=2,17=6,18=5,40=1/2;
 3/5=16,6=1,7=10,11=9,25=1,30=1,71=2,140=1/1,2,3;
 4//1;
 5/5=2,38=5,98=1/2;
 8/6=3,8=1,10=1,19=11,30=-1/1;
 9/15=3,16=-3/6;
 11/6=1,8=1,15=11,17=12,24=-1,27=1,28=-2,29=300,32=6,42=3/1,2,10;
 10/6=2,21=1/2;
 8/6=4,8=1,10=1,19=11,30=-1/11,4;
 10/5=1,20=4/2;
 11/12=2,14=11,16=1,17=2,28=-2,42=3,76=2/2,10,12;
 6/7=2,8=2,9=2,10=2,22=-1/1;
 7/8=1,10=1,12=2,25=1,44=2/1,2,3,16;
 1/10=4,30=1/3;
 99//99;
 Leave Link    1 at Sun Mar  6 20:03:10 2022, MaxMem= 16106127360 cpu:               3.1 elap:               0.1
 (Enter /sw/contrib/gaussian/g16/B01/g16/l101.exe)
 -----
 title
 -----
 Symbolic Z-matrix:
 Charge =  0 Multiplicity = 1
 H
 O                    1    r1
 O                    2    r2       1    a1
 N                    3    r3       2    a2       1    d1       0
 O                    4    r4       3    a3       2    d2       0
       Variables:
  r1                    0.98538                  
  r2                    1.42674                  
  r3                    1.38111                  
  r4                    1.19479                  
  a1                  100.63551                  
  a2                  113.13777                  
  a3                  114.33392                  
  d1                    0.                       
  d2                   -3.71212                  
 
 ITRead=  0  0  0  0  0
 MicOpt= -1 -1 -1 -1 -1
 NAtoms=      5 NQM=        5 NQMF=       0 NMMI=      0 NMMIF=      0
                NMic=       0 NMicF=      0.
                    Isotopes and Nuclear Properties:
 (Nuclear quadrupole moments (NQMom) in fm**2, nuclear magnetic moments (NMagM)
  in nuclear magnetons)

  Atom         1           2           3           4           5
 IAtWgt=           1          16          16          14          16
 AtmWgt=   1.0078250  15.9949146  15.9949146  14.0030740  15.9949146
 NucSpn=           1           0           0           2           0
 AtZEff=  -0.0000000  -0.0000000  -0.0000000  -0.0000000  -0.0000000
 NQMom=    0.0000000   0.0000000   0.0000000   2.0440000   0.0000000
 NMagM=    2.7928460   0.0000000   0.0000000   0.4037610   0.0000000
 AtZNuc=   1.0000000   8.0000000   8.0000000   7.0000000   8.0000000
 Leave Link  101 at Sun Mar  6 20:03:10 2022, MaxMem= 16106127360 cpu:               2.7 elap:               0.1
 (Enter /sw/contrib/gaussian/g16/B01/g16/l103.exe)

 GradGradGradGradGradGradGradGradGradGradGradGradGradGradGradGradGradGrad
 Berny optimization.
 Initialization pass.
                       ----------------------------
                       !    Initial Parameters    !
                       ! (Angstroms and Degrees)  !
 ----------------------                            ----------------------
 !      Name          Value   Derivative information (Atomic Units)     !
 ------------------------------------------------------------------------
 !       r1          0.9854   calculate D2E/DX2 analytically            !
 !       r2          1.4267   calculate D2E/DX2 analytically            !
 !       r3          1.3811   calculate D2E/DX2 analytically            !
 !       r4          1.1948   calculate D2E/DX2 analytically            !
 !       a1        100.6355   calculate D2E/DX2 analytically            !
 !       a2        113.1378   calculate D2E/DX2 analytically            !
 !       a3        114.3339   calculate D2E/DX2 analytically            !
 !       d1          0.0      calculate D2E/DX2 analytically            !
 !       d2         -3.7121   calculate D2E/DX2 analytically            !
 ------------------------------------------------------------------------
 Trust Radius=3.00D-01 FncErr=1.00D-07 GrdErr=1.00D-07 EigMax=2.50D+02 EigMin=1.00D-04
 Number of steps in this run=      2 maximum allowed number of steps=      2.
 GradGradGradGradGradGradGradGradGradGradGradGradGradGradGradGradGradGrad

 Leave Link  103 at Sun Mar  6 20:03:10 2022, MaxMem= 16106127360 cpu:               1.3 elap:               0.1
 (Enter /sw/contrib/gaussian/g16/B01/g16/l202.exe)
                          Input orientation:                          
 ---------------------------------------------------------------------
 Center     Atomic      Atomic             Coordinates (Angstroms)
 Number     Number       Type             X           Y           Z
 ---------------------------------------------------------------------
      1          1           0        0.000000    0.000000    0.000000
      2          8           0        0.000000    0.000000    0.985377
      3          8           0        1.402227    0.000000    1.248696
      4          7           0        2.169996    0.000000    0.100659
      5          8           0        1.540650   -0.070482   -0.912493
 ---------------------------------------------------------------------
                    Distance matrix (angstroms):
                    1          2          3          4          5
     1  H    0.000000
     2  O    0.985377   0.000000
     3  O    1.877627   1.426737   0.000000
     4  N    2.172329   2.343418   1.381108   0.000000
     5  O    1.791985   2.445501   2.166763   1.194788   0.000000
 Stoichiometry    HNO3
 Framework group  C1[X(HNO3)]
 Deg. of freedom     9
 Full point group                 C1      NOp   1
 Largest Abelian subgroup         C1      NOp   1
 Largest concise Abelian subgroup C1      NOp   1
                         Standard orientation:                         
 ---------------------------------------------------------------------
 Center     Atomic      Atomic             Coordinates (Angstroms)
 Number     Number       Type             X           Y           Z
 ---------------------------------------------------------------------
      1          1           0        0.540844   -1.138297    0.036834
      2          8           0        1.277253   -0.484402    0.003827
      3          8           0        0.542804    0.738652   -0.013588
      4          7           0       -0.825053    0.550804    0.020162
      5          8           0       -1.165741   -0.593917   -0.012484
 ---------------------------------------------------------------------
 Rotational constants (GHZ):          21.3611901           8.1006642           5.8750771
 Leave Link  202 at Sun Mar  6 20:03:10 2022, MaxMem= 16106127360 cpu:               1.5 elap:               0.1
 (Enter /sw/contrib/gaussian/g16/B01/g16/l301.exe)
 Standard basis: Aug-CC-pVTZ (5D, 7F)
 Ernie: Thresh=  0.10000D-02 Tol=  0.10000D-05 Strict=F.
 Ernie:  12 primitive shells out of 131 were deleted.
 There are   245 symmetry adapted cartesian basis functions of A   symmetry.
 There are   207 symmetry adapted basis functions of A   symmetry.
   207 basis functions,   315 primitive gaussians,   245 cartesian basis functions
    16 alpha electrons       16 beta electrons
       nuclear repulsion energy       122.7402485116 Hartrees.
 IExCor=    0 DFT=F Ex=HF Corr=None ExCW=0 ScaHFX=  1.000000
 ScaDFX=  1.000000  1.000000  1.000000  1.000000 ScalE2=  1.000000  1.000000
 IRadAn=      5 IRanWt=     -1 IRanGd=            0 ICorTp=0 IEmpDi=  4
 NAtoms=    5 NActive=    5 NUniq=    5 SFac= 1.00D+00 NAtFMM=   60 NAOKFM=F Big=F
 Integral buffers will be    131072 words long.
 Raffenetti 1 integral format.
 Two-electron integral symmetry is turned on.
 Leave Link  301 at Sun Mar  6 20:03:10 2022, MaxMem= 16106127360 cpu:               1.6 elap:               0.1
 (Enter /sw/contrib/gaussian/g16/B01/g16/l302.exe)
 NPDir=0 NMtPBC=     1 NCelOv=     1 NCel=       1 NClECP=     1 NCelD=      1
         NCelK=      1 NCelE2=     1 NClLst=     1 CellRange=     0.0.
 One-electron integrals computed using PRISM.
 One-electron integral symmetry used in STVInt
 NBasis=   207 RedAO= T EigKep=  1.31D-04  NBF=   207
 NBsUse=   207 1.00D-06 EigRej= -1.00D+00 NBFU=   207
 Leave Link  302 at Sun Mar  6 20:03:10 2022, MaxMem= 16106127360 cpu:               5.6 elap:               0.2
 (Enter /sw/contrib/gaussian/g16/B01/g16/l303.exe)
 DipDrv:  MaxL=1.
 Leave Link  303 at Sun Mar  6 20:03:10 2022, MaxMem= 16106127360 cpu:               1.5 elap:               0.1
 (Enter /sw/contrib/gaussian/g16/B01/g16/l401.exe)
 ExpMin= 2.53D-02 ExpMax= 1.53D+04 ExpMxC= 5.22D+02 IAcc=3 IRadAn=         5 AccDes= 0.00D+00
 Harris functional with IExCor=  205 and IRadAn=       5 diagonalized for initial guess.
 HarFok:  IExCor=  205 AccDes= 0.00D+00 IRadAn=         5 IDoV= 1 UseB2=F ITyADJ=14
 ICtDFT=  3500011 ScaDFX=  1.000000  1.000000  1.000000  1.000000
 FoFCou: FMM=F IPFlag=           0 FMFlag=      100000 FMFlg1=           0
         NFxFlg=           0 DoJE=T BraDBF=F KetDBF=T FulRan=T
         wScrn=  0.000000 ICntrl=       500 IOpCl=  0 I1Cent=   200000004 NGrid=           0
         NMat0=    1 NMatS0=      1 NMatT0=    0 NMatD0=    1 NMtDS0=    0 NMtDT0=    0
 Petite list used in FoFCou.
 Harris En= -279.644766346016    
 JPrj=0 DoOrth=F DoCkMO=F.
 Leave Link  401 at Sun Mar  6 20:03:11 2022, MaxMem= 16106127360 cpu:               7.2 elap:               0.3
 (Enter /sw/contrib/gaussian/g16/B01/g16/l502.exe)
 Keep R1 ints in memory in canonical form, NReq=245623665.
 FoFCou: FMM=F IPFlag=           0 FMFlag=           0 FMFlg1=           0
         NFxFlg=           0 DoJE=F BraDBF=F KetDBF=F FulRan=T
         wScrn=  0.000000 ICntrl=       600 IOpCl=  0 I1Cent=           0 NGrid=           0
         NMat0=    1 NMatS0=  21528 NMatT0=    0 NMatD0=    1 NMtDS0=    0 NMtDT0=    0
 Symmetry not used in FoFCou.
 Two-electron integral symmetry not used.
 Closed shell SCF:
 Using DIIS extrapolation, IDIIS=  1040.
 NGot= 16106127360 LenX= 15874260251 LenY= 15874199785
 Requested convergence on RMS density matrix=1.00D-08 within 128 cycles.
 Requested convergence on MAX density matrix=1.00D-06.
 Requested convergence on             energy=1.00D-06.
 No special actions if energy rises.

 Cycle   1  Pass 1  IDiag  1:
 E= -279.364044705711    
 DIIS: error= 2.65D-02 at cycle   1 NSaved=   1.
 NSaved= 1 IEnMin= 1 EnMin= -279.364044705711     IErMin= 1 ErrMin= 2.65D-02
 ErrMax= 2.65D-02  0.00D+00 EMaxC= 1.00D-01 BMatC= 4.51D-01 BMatP= 4.51D-01
 IDIUse=3 WtCom= 7.35D-01 WtEn= 2.65D-01
 Coeff-Com:  0.100D+01
 Coeff-En:   0.100D+01
 Coeff:      0.100D+01
 Gap=     0.519 Goal=   None    Shift=    0.000
 GapD=    0.519 DampG=2.000 DampE=0.500 DampFc=1.0000 IDamp=-1.
 RMSDP=1.68D-03 MaxDP=8.78D-02              OVMax= 1.23D-01

 Cycle   2  Pass 1  IDiag  1:
 E= -279.446114683795     Delta-E=       -0.082069978084 Rises=F Damp=F
 DIIS: error= 1.88D-02 at cycle   2 NSaved=   2.
 NSaved= 2 IEnMin= 2 EnMin= -279.446114683795     IErMin= 2 ErrMin= 1.88D-02
 ErrMax= 1.88D-02  0.00D+00 EMaxC= 1.00D-01 BMatC= 8.59D-02 BMatP= 4.51D-01
 IDIUse=3 WtCom= 8.12D-01 WtEn= 1.88D-01
 Coeff-Com:  0.218D+00 0.782D+00
 Coeff-En:   0.767D-01 0.923D+00
 Coeff:      0.192D+00 0.808D+00
 Gap=     0.586 Goal=   None    Shift=    0.000
 RMSDP=9.66D-04 MaxDP=3.67D-02 DE=-8.21D-02 OVMax= 9.11D-02

 Cycle   3  Pass 1  IDiag  1:
 E= -279.483967166693     Delta-E=       -0.037852482899 Rises=F Damp=F
 DIIS: error= 8.56D-03 at cycle   3 NSaved=   3.
 NSaved= 3 IEnMin= 3 EnMin= -279.483967166693     IErMin= 3 ErrMin= 8.56D-03
 ErrMax= 8.56D-03  0.00D+00 EMaxC= 1.00D-01 BMatC= 3.08D-02 BMatP= 8.59D-02
 IDIUse=3 WtCom= 9.14D-01 WtEn= 8.56D-02
 Coeff-Com: -0.347D-01 0.364D+00 0.671D+00
 Coeff-En:   0.000D+00 0.217D+00 0.783D+00
 Coeff:     -0.317D-01 0.351D+00 0.680D+00
 Gap=     0.541 Goal=   None    Shift=    0.000
 RMSDP=4.06D-04 MaxDP=1.57D-02 DE=-3.79D-02 OVMax= 3.77D-02

 Cycle   4  Pass 1  IDiag  1:
 E= -279.505025061527     Delta-E=       -0.021057894834 Rises=F Damp=F
 DIIS: error= 1.60D-03 at cycle   4 NSaved=   4.
 NSaved= 4 IEnMin= 4 EnMin= -279.505025061527     IErMin= 4 ErrMin= 1.60D-03
 ErrMax= 1.60D-03  0.00D+00 EMaxC= 1.00D-01 BMatC= 5.57D-04 BMatP= 3.08D-02
 IDIUse=3 WtCom= 9.84D-01 WtEn= 1.60D-02
 Coeff-Com: -0.119D-01 0.486D-01 0.149D+00 0.815D+00
 Coeff-En:   0.000D+00 0.000D+00 0.000D+00 0.100D+01
 Coeff:     -0.117D-01 0.478D-01 0.146D+00 0.818D+00
 Gap=     0.528 Goal=   None    Shift=    0.000
 RMSDP=9.85D-05 MaxDP=2.39D-03 DE=-2.11D-02 OVMax= 1.15D-02

 Cycle   5  Pass 1  IDiag  1:
 E= -279.505810797781     Delta-E=       -0.000785736254 Rises=F Damp=F
 DIIS: error= 1.08D-03 at cycle   5 NSaved=   5.
 NSaved= 5 IEnMin= 5 EnMin= -279.505810797781     IErMin= 5 ErrMin= 1.08D-03
 ErrMax= 1.08D-03  0.00D+00 EMaxC= 1.00D-01 BMatC= 1.02D-04 BMatP= 5.57D-04
 IDIUse=3 WtCom= 9.89D-01 WtEn= 1.08D-02
 Coeff-Com:  0.538D-02-0.657D-01-0.111D+00 0.593D-01 0.111D+01
 Coeff-En:   0.000D+00 0.000D+00 0.000D+00 0.000D+00 0.100D+01
 Coeff:      0.532D-02-0.650D-01-0.110D+00 0.587D-01 0.111D+01
 Gap=     0.532 Goal=   None    Shift=    0.000
 RMSDP=7.98D-05 MaxDP=2.12D-03 DE=-7.86D-04 OVMax= 1.28D-02

 Cycle   6  Pass 1  IDiag  1:
 E= -279.506172882146     Delta-E=       -0.000362084365 Rises=F Damp=F
 DIIS: error= 3.28D-04 at cycle   6 NSaved=   6.
 NSaved= 6 IEnMin= 6 EnMin= -279.506172882146     IErMin= 6 ErrMin= 3.28D-04
 ErrMax= 3.28D-04  0.00D+00 EMaxC= 1.00D-01 BMatC= 2.40D-05 BMatP= 1.02D-04
 IDIUse=3 WtCom= 9.97D-01 WtEn= 3.28D-03
 Coeff-Com:  0.188D-02-0.749D-02-0.167D-01-0.184D+00 0.137D-01 0.119D+01
 Coeff-En:   0.000D+00 0.000D+00 0.000D+00 0.000D+00 0.000D+00 0.100D+01
 Coeff:      0.188D-02-0.747D-02-0.167D-01-0.183D+00 0.137D-01 0.119D+01
 Gap=     0.532 Goal=   None    Shift=    0.000
 RMSDP=4.66D-05 MaxDP=1.07D-03 DE=-3.62D-04 OVMax= 6.11D-03

 Cycle   7  Pass 1  IDiag  1:
 E= -279.506258657793     Delta-E=       -0.000085775646 Rises=F Damp=F
 DIIS: error= 1.07D-04 at cycle   7 NSaved=   7.
 NSaved= 7 IEnMin= 7 EnMin= -279.506258657793     IErMin= 7 ErrMin= 1.07D-04
 ErrMax= 1.07D-04  0.00D+00 EMaxC= 1.00D-01 BMatC= 3.58D-06 BMatP= 2.40D-05
 IDIUse=3 WtCom= 9.99D-01 WtEn= 1.07D-03
 Coeff-Com: -0.109D-02 0.114D-01 0.249D-01 0.164D-01-0.182D+00-0.149D+00
 Coeff-Com:  0.128D+01
 Coeff-En:   0.000D+00 0.000D+00 0.000D+00 0.000D+00 0.000D+00 0.000D+00
 Coeff-En:   0.100D+01
 Coeff:     -0.109D-02 0.114D-01 0.249D-01 0.164D-01-0.181D+00-0.149D+00
 Coeff:      0.128D+01
 Gap=     0.532 Goal=   None    Shift=    0.000
 RMSDP=1.75D-05 MaxDP=5.10D-04 DE=-8.58D-05 OVMax= 2.33D-03

 Cycle   8  Pass 1  IDiag  1:
 E= -279.506270660235     Delta-E=       -0.000012002442 Rises=F Damp=F
 DIIS: error= 4.46D-05 at cycle   8 NSaved=   8.
 NSaved= 8 IEnMin= 8 EnMin= -279.506270660235     IErMin= 8 ErrMin= 4.46D-05
 ErrMax= 4.46D-05  0.00D+00 EMaxC= 1.00D-01 BMatC= 6.02D-07 BMatP= 3.58D-06
 IDIUse=1 WtCom= 1.00D+00 WtEn= 0.00D+00
 Coeff-Com: -0.561D-03 0.415D-02 0.959D-02 0.251D-01-0.573D-01-0.193D+00
 Coeff-Com:  0.354D+00 0.858D+00
 Coeff:     -0.561D-03 0.415D-02 0.959D-02 0.251D-01-0.573D-01-0.193D+00
 Coeff:      0.354D+00 0.858D+00
 Gap=     0.532 Goal=   None    Shift=    0.000
 RMSDP=5.46D-06 MaxDP=1.49D-04 DE=-1.20D-05 OVMax= 6.54D-04

 Cycle   9  Pass 1  IDiag  1:
 E= -279.506272049048     Delta-E=       -0.000001388814 Rises=F Damp=F
 DIIS: error= 1.99D-05 at cycle   9 NSaved=   9.
 NSaved= 9 IEnMin= 9 EnMin= -279.506272049048     IErMin= 9 ErrMin= 1.99D-05
 ErrMax= 1.99D-05  0.00D+00 EMaxC= 1.00D-01 BMatC= 1.17D-07 BMatP= 6.02D-07
 IDIUse=1 WtCom= 1.00D+00 WtEn= 0.00D+00
 Coeff-Com:  0.242D-03-0.257D-02-0.531D-02-0.569D-02 0.470D-01 0.492D-01
 Coeff-Com: -0.340D+00 0.293D-01 0.123D+01
 Coeff:      0.242D-03-0.257D-02-0.531D-02-0.569D-02 0.470D-01 0.492D-01
 Coeff:     -0.340D+00 0.293D-01 0.123D+01
 Gap=     0.532 Goal=   None    Shift=    0.000
 RMSDP=2.48D-06 MaxDP=7.44D-05 DE=-1.39D-06 OVMax= 2.13D-04

 Cycle  10  Pass 1  IDiag  1:
 E= -279.506272316245     Delta-E=       -0.000000267197 Rises=F Damp=F
 DIIS: error= 5.40D-06 at cycle  10 NSaved=  10.
 NSaved=10 IEnMin=10 EnMin= -279.506272316245     IErMin=10 ErrMin= 5.40D-06
 ErrMax= 5.40D-06  0.00D+00 EMaxC= 1.00D-01 BMatC= 8.39D-09 BMatP= 1.17D-07
 IDIUse=1 WtCom= 1.00D+00 WtEn= 0.00D+00
 Coeff-Com: -0.382D-04 0.489D-03 0.121D-02-0.186D-02-0.110D-01 0.537D-02
 Coeff-Com:  0.728D-01-0.540D-01-0.437D+00 0.142D+01
 Coeff:     -0.382D-04 0.489D-03 0.121D-02-0.186D-02-0.110D-01 0.537D-02
 Coeff:      0.728D-01-0.540D-01-0.437D+00 0.142D+01
 Gap=     0.532 Goal=   None    Shift=    0.000
 RMSDP=7.21D-07 MaxDP=2.55D-05 DE=-2.67D-07 OVMax= 6.79D-05

 Cycle  11  Pass 1  IDiag  1:
 E= -279.506272342047     Delta-E=       -0.000000025802 Rises=F Damp=F
 DIIS: error= 2.19D-06 at cycle  11 NSaved=  11.
 NSaved=11 IEnMin=11 EnMin= -279.506272342047     IErMin=11 ErrMin= 2.19D-06
 ErrMax= 2.19D-06  0.00D+00 EMaxC= 1.00D-01 BMatC= 8.73D-10 BMatP= 8.39D-09
 IDIUse=1 WtCom= 1.00D+00 WtEn= 0.00D+00
 Coeff-Com: -0.165D-04 0.169D-03 0.340D-03 0.924D-03-0.220D-02-0.733D-02
 Coeff-Com:  0.191D-01 0.196D-01-0.487D-01-0.331D+00 0.135D+01
 Coeff:     -0.165D-04 0.169D-03 0.340D-03 0.924D-03-0.220D-02-0.733D-02
 Coeff:      0.191D-01 0.196D-01-0.487D-01-0.331D+00 0.135D+01
 Gap=     0.532 Goal=   None    Shift=    0.000
 RMSDP=2.58D-07 MaxDP=8.82D-06 DE=-2.58D-08 OVMax= 2.37D-05

 Cycle  12  Pass 1  IDiag  1:
 E= -279.506272345317     Delta-E=       -0.000000003270 Rises=F Damp=F
 DIIS: error= 7.07D-07 at cycle  12 NSaved=  12.
 NSaved=12 IEnMin=12 EnMin= -279.506272345317     IErMin=12 ErrMin= 7.07D-07
 ErrMax= 7.07D-07  0.00D+00 EMaxC= 1.00D-01 BMatC= 9.77D-11 BMatP= 8.73D-10
 IDIUse=1 WtCom= 1.00D+00 WtEn= 0.00D+00
 Coeff-Com:  0.287D-05-0.482D-04-0.107D-03 0.135D-03 0.120D-02-0.719D-03
 Coeff-Com: -0.773D-02 0.637D-02 0.432D-01-0.115D+00-0.195D+00 0.127D+01
 Coeff:      0.287D-05-0.482D-04-0.107D-03 0.135D-03 0.120D-02-0.719D-03
 Coeff:     -0.773D-02 0.637D-02 0.432D-01-0.115D+00-0.195D+00 0.127D+01
 Gap=     0.532 Goal=   None    Shift=    0.000
 RMSDP=9.59D-08 MaxDP=2.65D-06 DE=-3.27D-09 OVMax= 8.86D-06

 Cycle  13  Pass 1  IDiag  1:
 E= -279.506272345700     Delta-E=       -0.000000000383 Rises=F Damp=F
 DIIS: error= 1.68D-07 at cycle  13 NSaved=  13.
 NSaved=13 IEnMin=13 EnMin= -279.506272345700     IErMin=13 ErrMin= 1.68D-07
 ErrMax= 1.68D-07  0.00D+00 EMaxC= 1.00D-01 BMatC= 1.09D-11 BMatP= 9.77D-11
 IDIUse=1 WtCom= 1.00D+00 WtEn= 0.00D+00
 Coeff-Com:  0.140D-05-0.129D-04-0.173D-04-0.137D-03 0.283D-04 0.105D-02
 Coeff-Com: -0.992D-03-0.306D-02-0.299D-02 0.631D-01-0.137D+00-0.189D+00
 Coeff-Com:  0.127D+01
 Coeff:      0.140D-05-0.129D-04-0.173D-04-0.137D-03 0.283D-04 0.105D-02
 Coeff:     -0.992D-03-0.306D-02-0.299D-02 0.631D-01-0.137D+00-0.189D+00
 Coeff:      0.127D+01
 Gap=     0.532 Goal=   None    Shift=    0.000
 RMSDP=3.24D-08 MaxDP=5.83D-07 DE=-3.83D-10 OVMax= 4.46D-06

 Cycle  14  Pass 1  IDiag  1:
 E= -279.506272345745     Delta-E=       -0.000000000045 Rises=F Damp=F
 DIIS: error= 8.50D-08 at cycle  14 NSaved=  14.
 NSaved=14 IEnMin=14 EnMin= -279.506272345745     IErMin=14 ErrMin= 8.50D-08
 ErrMax= 8.50D-08  0.00D+00 EMaxC= 1.00D-01 BMatC= 1.97D-12 BMatP= 1.09D-11
 IDIUse=1 WtCom= 1.00D+00 WtEn= 0.00D+00
 Coeff-Com: -0.607D-06 0.817D-05 0.150D-04 0.125D-04-0.165D-03-0.572D-04
 Coeff-Com:  0.109D-02-0.172D-03-0.469D-02 0.330D-02 0.427D-01-0.103D+00
 Coeff-Com: -0.207D+00 0.127D+01
 Coeff:     -0.607D-06 0.817D-05 0.150D-04 0.125D-04-0.165D-03-0.572D-04
 Coeff:      0.109D-02-0.172D-03-0.469D-02 0.330D-02 0.427D-01-0.103D+00
 Coeff:     -0.207D+00 0.127D+01
 Gap=     0.532 Goal=   None    Shift=    0.000
 RMSDP=1.39D-08 MaxDP=3.34D-07 DE=-4.50D-11 OVMax= 2.51D-06

 Cycle  15  Pass 1  IDiag  1:
 E= -279.506272345757     Delta-E=       -0.000000000012 Rises=F Damp=F
 DIIS: error= 5.18D-08 at cycle  15 NSaved=  15.
 NSaved=15 IEnMin=15 EnMin= -279.506272345757     IErMin=15 ErrMin= 5.18D-08
 ErrMax= 5.18D-08  0.00D+00 EMaxC= 1.00D-01 BMatC= 6.05D-13 BMatP= 1.97D-12
 IDIUse=1 WtCom= 1.00D+00 WtEn= 0.00D+00
 Coeff-Com:  0.470D-07-0.123D-05-0.505D-05 0.227D-04 0.834D-04-0.196D-03
 Coeff-Com: -0.373D-03 0.682D-03 0.314D-02-0.151D-01 0.726D-02 0.972D-01
 Coeff-Com: -0.199D+00-0.668D+00 0.177D+01
 Coeff:      0.470D-07-0.123D-05-0.505D-05 0.227D-04 0.834D-04-0.196D-03
 Coeff:     -0.373D-03 0.682D-03 0.314D-02-0.151D-01 0.726D-02 0.972D-01
 Coeff:     -0.199D+00-0.668D+00 0.177D+01
 Gap=     0.532 Goal=   None    Shift=    0.000
 RMSDP=1.28D-08 MaxDP=3.25D-07 DE=-1.16D-11 OVMax= 2.41D-06

 Cycle  16  Pass 1  IDiag  1:
 E= -279.506272345761     Delta-E=       -0.000000000004 Rises=F Damp=F
 DIIS: error= 2.03D-08 at cycle  16 NSaved=  16.
 NSaved=16 IEnMin=16 EnMin= -279.506272345761     IErMin=16 ErrMin= 2.03D-08
 ErrMax= 2.03D-08  0.00D+00 EMaxC= 1.00D-01 BMatC= 1.10D-13 BMatP= 6.05D-13
 IDIUse=1 WtCom= 1.00D+00 WtEn= 0.00D+00
 Coeff-Com:  0.926D-07-0.126D-05-0.861D-06-0.127D-04 0.271D-05 0.857D-04
 Coeff-Com: -0.518D-04-0.298D-03-0.163D-03 0.514D-02-0.121D-01-0.162D-01
 Coeff-Com:  0.128D+00 0.235D-01-0.847D+00 0.172D+01
 Coeff:      0.926D-07-0.126D-05-0.861D-06-0.127D-04 0.271D-05 0.857D-04
 Coeff:     -0.518D-04-0.298D-03-0.163D-03 0.514D-02-0.121D-01-0.162D-01
 Coeff:      0.128D+00 0.235D-01-0.847D+00 0.172D+01
 Gap=     0.532 Goal=   None    Shift=    0.000
 RMSDP=6.73D-09 MaxDP=1.70D-07 DE=-4.09D-12 OVMax= 1.26D-06

 SCF Done:  E(RHF) =  -279.506272346     A.U. after   16 cycles
            NFock= 16  Conv=0.67D-08     -V/T= 2.0022
 KE= 2.788854338933D+02 PE=-9.063488756285D+02 EE= 2.252169208779D+02
 Leave Link  502 at Sun Mar  6 20:03:18 2022, MaxMem= 16106127360 cpu:              43.3 elap:               7.5
 (Enter /sw/contrib/gaussian/g16/B01/g16/l801.exe)
 ExpMin= 2.53D-02 ExpMax= 1.53D+04 ExpMxC= 5.22D+02 IAcc=3 IRadAn=         5 AccDes= 0.00D+00
 HarFok:  IExCor=  205 AccDes= 0.00D+00 IRadAn=         5 IDoV=-2 UseB2=F ITyADJ=14
 ICtDFT= 12500011 ScaDFX=  1.000000  1.000000  1.000000  1.000000
 DSYEVD-2 returned Info=          93 IAlg= 4 N=    46 NDim=    46 NE2=   350130240 trying  DSYEV.
 Largest valence mixing into a core orbital is  2.07D-04
 Largest core mixing into a valence orbital is  3.10D-05
 Range of M.O.s used for correlation:     5   207
 NBasis=   207 NAE=    16 NBE=    16 NFC=     4 NFV=     0
 NROrb=    203 NOA=    12 NOB=    12 NVA=   191 NVB=   191

 **** Warning!!: The largest alpha MO coefficient is  0.16291446D+02

 Leave Link  801 at Sun Mar  6 20:03:18 2022, MaxMem= 16106127360 cpu:               2.1 elap:               0.1
 (Enter /sw/contrib/gaussian/g16/B01/g16/l906.exe)
 Frozen-core derivative calculation, NFC=   4 NFV=   0.
 FulOut=F Deriv=T AODrv=T NAtomX=     5
   MMem=           0  MDisk=          12 MDiskD=          12
  W3Min=      811440 MinDsk=     2425030 NBas6D=         245
 NBas2D=       30762    NTT=       30135    LW2=     7400000
    MDV= 16105635804 MDiskM=      328645 NBas2p=       30759
 Disk-based method using ON**2 memory for 12 occupieds at a time.
 Permanent disk used for amplitudes=    11516536 words.
 Estimated scratch disk usage=   321863743 words.
 IMap=   1   2   3   4   5   6   7   8   9  10  11  12  13  14  15  16
 Actual    scratch disk usage=   310892607 words.
 JobTyp=1 Pass  1:  I=   5 to  16 NPSUse= 28 ParTrn=T ParDer=T DoDerP=T.
 (rs|ai) integrals will be sorted in core.
 Spin components of T(2) and E(2):
     alpha-alpha T2 =       0.3479096651D-01 E2=     -0.1245351008D+00
     alpha-beta  T2 =       0.1844878958D+00 E2=     -0.6996703190D+00
     beta-beta   T2 =       0.3479096651D-01 E2=     -0.1245351008D+00
 The integrals were generated   1 times.
 ANorm=    0.1119852592D+01
 E2 =    -0.9487405205D+00 EUMP2 =    -0.28045501286627D+03
 Leave Link  906 at Sun Mar  6 20:04:57 2022, MaxMem= 16106127360 cpu:            2755.5 elap:              98.6
 (Enter /sw/contrib/gaussian/g16/B01/g16/l1101.exe)
 Using compressed Sx but separate Hx and Fx, NAtomX=     5.
 Will process      6 centers per pass.
 Leave Link 1101 at Sun Mar  6 20:04:57 2022, MaxMem= 16106127360 cpu:               6.6 elap:               0.3
 (Enter /sw/contrib/gaussian/g16/B01/g16/l1102.exe)
 Leave Link 1102 at Sun Mar  6 20:04:57 2022, MaxMem= 16106127360 cpu:               0.5 elap:               0.0
 (Enter /sw/contrib/gaussian/g16/B01/g16/l1110.exe)
 Forming Gx(P) for the SCF density, NAtomX=     5.
 Integral derivatives from FoFJK, PRISM(SPDF).
 Do as many integral derivatives as possible in FoFJK.
 G2DrvN: MDV=   16106126844.
 G2DrvN: will do     6 centers at a time, making    1 passes.
 Calling FoFCou, ICntrl=  3107 FMM=F I1Cent=   0 AccDes= 0.00D+00.
 FoFJK:  IHMeth= 1 ICntrl=    3107 DoSepK=F KAlg= 0 I1Cent=           0 FoldK=F
 IRaf=         0 NMat=       1 IRICut=       1 DoRegI=T DoRafI=F ISym2E= 0 IDoP0=0 IntGTp=1.
 FoFCou: FMM=F IPFlag=           0 FMFlag=      100000 FMFlg1=           0
         NFxFlg=           0 DoJE=F BraDBF=F KetDBF=F FulRan=T
         wScrn=  0.000000 ICntrl=      3107 IOpCl=  0 I1Cent=           0 NGrid=           0
         NMat0=    1 NMatS0=      1 NMatT0=    0 NMatD0=    1 NMtDS0=    0 NMtDT0=    0
 Symmetry not used in FoFCou.
 End of G2Drv F.D. properties file   721 does not exist.
 End of G2Drv F.D. properties file   722 does not exist.
 End of G2Drv F.D. properties file   788 does not exist.
 Leave Link 1110 at Sun Mar  6 20:05:00 2022, MaxMem= 16106127360 cpu:              87.2 elap:               3.1
 (Enter /sw/contrib/gaussian/g16/B01/g16/l1002.exe)
 Minotr:  Closed shell wavefunction.
          IDoAtm=11111
          Frozen-core window.
          Direct CPHF calculation.
          Differentiating once with respect to electric field.
                with respect to dipole field.
          Differentiating once with respect to nuclear coordinates.
          Requested convergence is 1.0D-08 RMS, and 1.0D-07 maximum.
          Secondary convergence is 1.0D-12 RMS, and 1.0D-12 maximum.
          NewPWx=T KeepS1=T KeepF1=T KeepIn=T MapXYZ=F SortEE=F KeepMc=T.
 Keep R1 ints in memory in canonical form, NReq=245624906.
 FoFCou: FMM=F IPFlag=           0 FMFlag=           0 FMFlg1=           0
         NFxFlg=           0 DoJE=F BraDBF=F KetDBF=F FulRan=T
         wScrn=  0.000000 ICntrl=       600 IOpCl=  0 I1Cent=           0 NGrid=           0
         NMat0=    1 NMatS0=  21528 NMatT0=    0 NMatD0=    1 NMtDS0=    0 NMtDT0=    0
 Symmetry not used in FoFCou.
 Two-electron integral symmetry not used.
          MDV=   16106127360 using IRadAn=       1.
          Solving linear equations simultaneously, MaxMat=       0.
          There are    18 degrees of freedom in the 1st order CPHF.  IDoFFX=6 NUNeed=    18.
     15 vectors produced by pass  0 Test12= 1.70D-14 5.56D-09 XBig12= 7.45D+00 1.30D+00.
 AX will form    15 AO Fock derivatives at one time.
     15 vectors produced by pass  1 Test12= 1.70D-14 5.56D-09 XBig12= 1.30D+00 2.33D-01.
     15 vectors produced by pass  2 Test12= 1.70D-14 5.56D-09 XBig12= 9.09D-02 8.05D-02.
     15 vectors produced by pass  3 Test12= 1.70D-14 5.56D-09 XBig12= 3.21D-03 1.19D-02.
     15 vectors produced by pass  4 Test12= 1.70D-14 5.56D-09 XBig12= 6.99D-05 1.58D-03.
     15 vectors produced by pass  5 Test12= 1.70D-14 5.56D-09 XBig12= 7.41D-07 1.06D-04.
     15 vectors produced by pass  6 Test12= 1.70D-14 5.56D-09 XBig12= 4.69D-09 1.22D-05.
     13 vectors produced by pass  7 Test12= 1.70D-14 5.56D-09 XBig12= 3.52D-11 8.38D-07.
      3 vectors produced by pass  8 Test12= 1.70D-14 5.56D-09 XBig12= 3.03D-13 6.42D-08.
      1 vectors produced by pass  9 Test12= 1.70D-14 5.56D-09 XBig12= 2.68D-15 7.47D-09.
 InvSVY:  IOpt=1 It=  1 EMax= 2.11D-15
 Solved reduced A of dimension   122 with    15 vectors.
 FullF1:  Do perturbations      1 to      18.
 Saving first derivative matrices.
 End of Minotr F.D. properties file   721 does not exist.
 End of Minotr F.D. properties file   722 does not exist.
 End of Minotr F.D. properties file   788 does not exist.
 Leave Link 1002 at Sun Mar  6 20:05:04 2022, MaxMem= 16106127360 cpu:              93.6 elap:               3.8
 (Enter /sw/contrib/gaussian/g16/B01/g16/l811.exe)
 MDV= 16106127360.
 Form MO integral derivatives with frozen-active canonical formalism.
 MOERI=1 MOERIx=1 NAtoms=     5 NAtomX=     5.
 Discarding MO integrals.
 MO basis two electron integral derivatives will not be stored on disk.
 IAlg= 3 DoFC=T DoPWx=T Debug=F.
 Frozen-core window:  NFC=   4 NFV=   0.
 Reordered first order wavefunction length =     18678272
 In DefCFB: NBatch=  1 ICI= 16 ICA=191 LFMax= 96
            Large arrays: LIAPS=   619940160 LIARS=   288257200 words.
 In StABat: MaxSiz= 55 MinSiz= 25 NAtomB=  5
 DoIAMN: NPSUse= 28.
 Leave Link  811 at Sun Mar  6 20:06:38 2022, MaxMem= 16106127360 cpu:            2605.5 elap:              93.3
 (Enter /sw/contrib/gaussian/g16/B01/g16/l804.exe)
 Frozen-core window:  NFC=   4 NFV=   0.
 Closed-shell transformation, MDV= 16106127360 ITran=4 ISComp=1.
 Semi-Direct transformation.
 ModeAB=           2 MOrb=            16 LenV=   16104922737
 LASXX=     67341636 LTotXX=    67341636 LenRXX=    67341636
 LTotAB=    68301760 MaxLAS=    99807120 LenRXY=    99807120
 NonZer=   134683272 LenScr=   202817536 LnRSAI=           0
 LnScr1=           0 LExtra=           0 Total=    369966292
 MaxDsk=          -1 SrtSym=           F ITran=            4
 DoSDTr:  NPSUse= 28
 JobTyp=0 Pass  1:  I=   1 to  16.
 (rs|ai) integrals will be sorted in core.
 Complete sort for first half transformation.
 First half transformation complete.
 Begin second half transformation for I=  10.
 Begin second half transformation for I=  10.
 Complete sort for second half transformation.
 Second half transformation complete.
 SymMOI:  orbitals are not symmetric.
 Spin components of T(2) and E(2):
     alpha-alpha T2 =       0.3479096651D-01 E2=     -0.1245351008D+00
     alpha-beta  T2 =       0.1844878958D+00 E2=     -0.6996703190D+00
     beta-beta   T2 =       0.3479096651D-01 E2=     -0.1245351008D+00
 ANorm=    0.1583710724D+01
 E2 =    -0.9487405205D+00 EUMP2 =    -0.28045501286627D+03
 Leave Link  804 at Sun Mar  6 20:06:51 2022, MaxMem= 16106127360 cpu:             379.8 elap:              13.6
 (Enter /sw/contrib/gaussian/g16/B01/g16/l1002.exe)
 Minotr:  Closed shell wavefunction.
          Computing MP2/KS-MP2 derivatives.
          Using Z-Vector for PSCF gradient.
          Skipping F1 and S1 gradient terms here.
          IDoAtm=11111
          Frozen-core window.
          Using MO integrals in the linear equations.
          Forming densities via direct SCF.
          Differentiating once with respect to electric field.
                with respect to dipole field.
          Differentiating once with respect to nuclear coordinates.
          Requested convergence is 1.0D-10 RMS, and 1.0D-09 maximum.
          NewPWx=F KeepS1=T KeepF1=T KeepIn=T MapXYZ=F SortEE=F KeepMc=T.
          MDV=   16106127360 using IRadAn=       5.
          Solving linear equations separately, MaxMat=       0.
          There are     1 degrees of freedom in the 1st order CPHF.  IDoFFX=0 NUNeed=     1.
 FoFJK:  IHMeth= 1 ICntrl=       0 DoSepK=F KAlg= 0 I1Cent=           0 FoldK=F
 IRaf=         0 NMat=       1 IRICut=       1 DoRegI=T DoRafI=F ISym2E= 0 IDoP0=0 IntGTp=1.
 FoFCou: FMM=F IPFlag=           0 FMFlag=      100000 FMFlg1=           0
         NFxFlg=           0 DoJE=F BraDBF=F KetDBF=F FulRan=T
         wScrn=  0.000000 ICntrl=         0 IOpCl=  0 I1Cent=           0 NGrid=           0
         NMat0=    1 NMatS0=      1 NMatT0=    0 NMatD0=    1 NMtDS0=    0 NMtDT0=    0
 Symmetry not used in FoFCou.
 LinEq1:  Iter=  0 NonCon=     1 RMS=6.59D-03 Max=1.67D-01 NDo=     1
 LinEq1:  Iter=  1 NonCon=     1 RMS=2.00D-03 Max=3.04D-02 NDo=     1
 LinEq1:  Iter=  2 NonCon=     1 RMS=8.88D-04 Max=1.43D-02 NDo=     1
 LinEq1:  Iter=  3 NonCon=     1 RMS=3.80D-04 Max=8.04D-03 NDo=     1
 LinEq1:  Iter=  4 NonCon=     1 RMS=1.37D-04 Max=1.64D-03 NDo=     1
 LinEq1:  Iter=  5 NonCon=     1 RMS=7.65D-05 Max=1.09D-03 NDo=     1
 LinEq1:  Iter=  6 NonCon=     1 RMS=2.45D-05 Max=3.15D-04 NDo=     1
 LinEq1:  Iter=  7 NonCon=     1 RMS=8.28D-06 Max=9.24D-05 NDo=     1
 LinEq1:  Iter=  8 NonCon=     1 RMS=4.07D-06 Max=6.57D-05 NDo=     1
 LinEq1:  Iter=  9 NonCon=     1 RMS=1.10D-06 Max=1.70D-05 NDo=     1
 LinEq1:  Iter= 10 NonCon=     1 RMS=2.73D-07 Max=6.59D-06 NDo=     1
 LinEq1:  Iter= 11 NonCon=     1 RMS=7.99D-08 Max=2.46D-06 NDo=     1
 LinEq1:  Iter= 12 NonCon=     1 RMS=2.25D-08 Max=4.62D-07 NDo=     1
 LinEq1:  Iter= 13 NonCon=     1 RMS=5.06D-09 Max=8.85D-08 NDo=     1
 LinEq1:  Iter= 14 NonCon=     1 RMS=9.69D-10 Max=8.96D-09 NDo=     1
 LinEq1:  Iter= 15 NonCon=     1 RMS=2.57D-10 Max=2.57D-09 NDo=     1
 LinEq1:  Iter= 16 NonCon=     0 RMS=5.44D-11 Max=8.59D-10 NDo=     1
 Linear equations converged to 1.000D-10 1.000D-09 after    16 iterations.
 End of Minotr F.D. properties file   721 does not exist.
 End of Minotr F.D. properties file   722 does not exist.
 End of Minotr F.D. properties file   788 does not exist.
 Leave Link 1002 at Sun Mar  6 20:06:54 2022, MaxMem= 16106127360 cpu:              71.8 elap:               2.6
 (Enter /sw/contrib/gaussian/g16/B01/g16/l1102.exe)
 Use density number 2.
 Symmetrizing basis deriv contribution to polar:
 IMax=3 JMax=2 DiffMx= 0.00D+00
 Leave Link 1102 at Sun Mar  6 20:06:54 2022, MaxMem= 16106127360 cpu:               0.6 elap:               0.0
 (Enter /sw/contrib/gaussian/g16/B01/g16/l1110.exe)
 Forming Gx(P) for generalized density number  2 NAtomX=     5.
 Integral derivatives from FoFJK, PRISM(SPDF).
 Do as many integral derivatives as possible in FoFJK.
 G2DrvN: MDV=   16106126844.
 G2DrvN: will do     6 centers at a time, making    1 passes.
 Calling FoFCou, ICntrl=  3107 FMM=F I1Cent=   0 AccDes= 0.00D+00.
 FoFJK:  IHMeth= 1 ICntrl=    3107 DoSepK=F KAlg= 0 I1Cent=           0 FoldK=F
 IRaf=         0 NMat=       1 IRICut=       1 DoRegI=T DoRafI=F ISym2E= 0 IDoP0=0 IntGTp=1.
 FoFCou: FMM=F IPFlag=           0 FMFlag=      100000 FMFlg1=           0
         NFxFlg=           0 DoJE=F BraDBF=F KetDBF=F FulRan=T
         wScrn=  0.000000 ICntrl=      3107 IOpCl=  0 I1Cent=           0 NGrid=           0
         NMat0=    1 NMatS0=      1 NMatT0=    0 NMatD0=    1 NMtDS0=    0 NMtDT0=    0
 Symmetry not used in FoFCou.
 End of G2Drv F.D. properties file   721 does not exist.
 End of G2Drv F.D. properties file   722 does not exist.
 End of G2Drv F.D. properties file   788 does not exist.
 Leave Link 1110 at Sun Mar  6 20:06:57 2022, MaxMem= 16106127360 cpu:              87.0 elap:               3.1
 (Enter /sw/contrib/gaussian/g16/B01/g16/l1112.exe)
 MP22nd: MDV=   16106127360
 This link is doing NAtomX=     5 total of    18 degrees of freedom.
 Using ON3 I/O method in MakUI.
 Frozen-core window:  NFC=   4 NFV=   0.
 Using Ix for Sx.
 Use MO integrals over full window.
 Using OV2 memory method for fx*t*t/D, MaxI=    16 DoOO2=F NP=  28.
 R2 and R3 integrals will be kept in memory, NReq=   915591705.
 FoFCou: FMM=F IPFlag=           0 FMFlag=           0 FMFlg1=           0
         NFxFlg=           0 DoJE=F BraDBF=F KetDBF=F FulRan=T
         wScrn=  0.000000 ICntrl=       600 IOpCl=  0 I1Cent=           0 NGrid=           0
         NMat0=    1 NMatS0=      1 NMatT0=    0 NMatD0=    1 NMtDS0=    0 NMtDT0=    0
 Symmetry not used in FoFCou.
 DD1Dir will call FoFMem   1 times, MxPair=       272
 NAB=   136 NAA=     0 NBB=     0.
 Symmetry is being used.
 FoFJK:  IHMeth= 1 ICntrl=       0 DoSepK=F KAlg= 0 I1Cent=           0 FoldK=F
 IRaf=         0 NMat=      18 IRICut=      45 DoRegI=T DoRafI=T ISym2E= 2 IDoP0=3 IntGTp=3.
 Discarding MO integrals.
 Leave Link 1112 at Sun Mar  6 20:07:33 2022, MaxMem= 16106127360 cpu:            1002.4 elap:              36.2
 (Enter /sw/contrib/gaussian/g16/B01/g16/l601.exe)
 Copying SCF densities to generalized density rwf, IOpCl= 0 IROHF=0.

 **********************************************************************

            Population analysis using the MP2 Density.

 **********************************************************************

 Orbital symmetries:
       Occupied  (A) (A) (A) (A) (A) (A) (A) (A) (A) (A) (A) (A)
                 (A) (A) (A) (A)
       Virtual   (A) (A) (A) (A) (A) (A) (A) (A) (A) (A) (A) (A)
                 (A) (A) (A) (A) (A) (A) (A) (A) (A) (A) (A) (A)
                 (A) (A) (A) (A) (A) (A) (A) (A) (A) (A) (A) (A)
                 (A) (A) (A) (A) (A) (A) (A) (A) (A) (A) (A) (A)
                 (A) (A) (A) (A) (A) (A) (A) (A) (A) (A) (A) (A)
                 (A) (A) (A) (A) (A) (A) (A) (A) (A) (A) (A) (A)
                 (A) (A) (A) (A) (A) (A) (A) (A) (A) (A) (A) (A)
                 (A) (A) (A) (A) (A) (A) (A) (A) (A) (A) (A) (A)
                 (A) (A) (A) (A) (A) (A) (A) (A) (A) (A) (A) (A)
                 (A) (A) (A) (A) (A) (A) (A) (A) (A) (A) (A) (A)
                 (A) (A) (A) (A) (A) (A) (A) (A) (A) (A) (A) (A)
                 (A) (A) (A) (A) (A) (A) (A) (A) (A) (A) (A) (A)
                 (A) (A) (A) (A) (A) (A) (A) (A) (A) (A) (A) (A)
                 (A) (A) (A) (A) (A) (A) (A) (A) (A) (A) (A) (A)
                 (A) (A) (A) (A) (A) (A) (A) (A) (A) (A) (A) (A)
                 (A) (A) (A) (A) (A) (A) (A) (A) (A) (A) (A)
 The electronic state is 1-A.
 Alpha  occ. eigenvalues --  -20.71968 -20.68726 -20.66835 -15.82597  -1.64423
 Alpha  occ. eigenvalues --   -1.50517  -1.29373  -0.96036  -0.83451  -0.75894
 Alpha  occ. eigenvalues --   -0.73988  -0.63753  -0.61926  -0.61788  -0.50485
 Alpha  occ. eigenvalues --   -0.49722
 Alpha virt. eigenvalues --    0.03505   0.06010   0.09512   0.10038   0.11900
 Alpha virt. eigenvalues --    0.12314   0.14948   0.15204   0.17731   0.18058
 Alpha virt. eigenvalues --    0.18960   0.21119   0.21681   0.24253   0.24632
 Alpha virt. eigenvalues --    0.26885   0.31132   0.31799   0.33806   0.34387
 Alpha virt. eigenvalues --    0.34685   0.39262   0.44821   0.48749   0.50583
 Alpha virt. eigenvalues --    0.51878   0.54476   0.56135   0.59896   0.62038
 Alpha virt. eigenvalues --    0.63815   0.68988   0.71679   0.72482   0.74309
 Alpha virt. eigenvalues --    0.76376   0.76731   0.79463   0.80606   0.84106
 Alpha virt. eigenvalues --    0.84327   0.85223   0.88576   0.90774   0.92971
 Alpha virt. eigenvalues --    0.94893   0.95424   1.01766   1.03317   1.06045
 Alpha virt. eigenvalues --    1.06532   1.09638   1.14336   1.15635   1.17051
 Alpha virt. eigenvalues --    1.22156   1.22681   1.24628   1.35132   1.36286
 Alpha virt. eigenvalues --    1.37093   1.46850   1.48624   1.50468   1.54108
 Alpha virt. eigenvalues --    1.59125   1.59826   1.61084   1.62854   1.69532
 Alpha virt. eigenvalues --    1.74028   1.80139   1.83004   1.88663   1.89763
 Alpha virt. eigenvalues --    1.92977   1.97901   1.98924   2.05244   2.12357
 Alpha virt. eigenvalues --    2.13086   2.16511   2.18827   2.23940   2.26423
 Alpha virt. eigenvalues --    2.29472   2.35201   2.36570   2.38654   2.40216
 Alpha virt. eigenvalues --    2.43367   2.46758   2.48050   2.52826   2.53946
 Alpha virt. eigenvalues --    2.54817   2.56014   2.61624   2.63040   2.66954
 Alpha virt. eigenvalues --    2.67489   2.75320   2.80821   2.81959   2.84270
 Alpha virt. eigenvalues --    2.91854   2.98500   3.04625   3.05102   3.11543
 Alpha virt. eigenvalues --    3.11829   3.17280   3.21295   3.30700   3.33243
 Alpha virt. eigenvalues --    3.36112   3.47771   3.67770   3.86995   3.93008
 Alpha virt. eigenvalues --    4.18198   4.21879   4.22963   4.26949   4.36982
 Alpha virt. eigenvalues --    4.50034   4.52741   4.55635   4.59937   4.69345
 Alpha virt. eigenvalues --    4.80935   4.89519   4.91899   4.94147   4.99741
 Alpha virt. eigenvalues --    5.00647   5.10899   5.13295   5.17938   5.24940
 Alpha virt. eigenvalues --    5.25940   5.31752   5.34689   5.35607   5.54679
 Alpha virt. eigenvalues --    5.64501   5.70659   5.88985   5.99726   6.26431
 Alpha virt. eigenvalues --    6.29588   6.36092   6.37656   6.59831   6.65922
 Alpha virt. eigenvalues --    6.65983   6.69018   6.72568   6.79461   6.80801
 Alpha virt. eigenvalues --    6.85055   6.96781   7.02084   7.06646   7.08078
 Alpha virt. eigenvalues --    7.13872   7.17158   7.17823   7.20336   7.24391
 Alpha virt. eigenvalues --    7.24961   7.27187   7.35007   7.39440   7.42791
 Alpha virt. eigenvalues --    7.44335   7.46253   7.55975   7.66344   7.66727
 Alpha virt. eigenvalues --    7.79426   7.88241   7.95282   8.06292   8.30639
 Alpha virt. eigenvalues --    8.49932   8.65218  13.61881  14.76383  15.10288
 Alpha virt. eigenvalues --   15.76079
          Condensed to atoms (all electrons):
               1          2          3          4          5
     1  H    0.578587   0.124280   0.024294  -0.000473  -0.004890
     2  O    0.124280   8.390137  -0.230894  -0.000518  -0.008947
     3  O    0.024294  -0.230894   8.372485  -0.169177  -0.034109
     4  N   -0.000473  -0.000518  -0.169177   7.134930  -0.119184
     5  O   -0.004890  -0.008947  -0.034109  -0.119184   8.363098
 Mulliken charges:
               1
     1  H    0.278203
     2  O   -0.274058
     3  O    0.037401
     4  N    0.154422
     5  O   -0.195968
 Sum of Mulliken charges =  -0.00000
 Mulliken charges with hydrogens summed into heavy atoms:
               1
     2  O    0.004145
     3  O    0.037401
     4  N    0.154422
     5  O   -0.195968
 APT charges:
               1
     1  H    0.271291
     2  O   -0.302269
     3  O   -0.309546
     4  N    0.643424
     5  O   -0.302901
 Sum of APT charges =  -0.00000
 APT charges with hydrogens summed into heavy atoms:
               1
     2  O   -0.030977
     3  O   -0.309546
     4  N    0.643424
     5  O   -0.302901
 Electronic spatial extent (au):  <R**2>=            207.2560
 Charge=             -0.0000 electrons
 Dipole moment (field-independent basis, Debye):
    X=             -0.6062    Y=             -0.9136    Z=              0.0527  Tot=              1.0977
 Quadrupole moment (field-independent basis, Debye-Ang):
   XX=            -25.1099   YY=            -21.2134   ZZ=            -21.9303
   XY=             -0.3842   XZ=              0.0346   YZ=             -0.1360
 Traceless Quadrupole moment (field-independent basis, Debye-Ang):
   XX=             -2.3587   YY=              1.5378   ZZ=              0.8209
   XY=             -0.3842   XZ=              0.0346   YZ=             -0.1360
 Octapole moment (field-independent basis, Debye-Ang**2):
  XXX=              0.1501  YYY=             -5.4931  ZZZ=             -0.0517  XYY=              2.3104
  XXY=              0.5365  XXZ=             -0.1059  XZZ=             -0.8887  YZZ=             -0.2263
  YYZ=              0.0695  XYZ=             -0.0396
 Hexadecapole moment (field-independent basis, Debye-Ang**3):
 XXXX=           -154.0245 YYYY=            -65.2143 ZZZZ=            -18.0699 XXXY=              2.8033
 XXXZ=              0.0564 YYYX=              0.2042 YYYZ=             -0.2913 ZZZX=              0.0436
 ZZZY=             -0.0476 XXYY=            -36.9618 XXZZ=            -27.9905 YYZZ=            -14.9426
 XXYZ=             -0.1097 YYXZ=              0.1584 ZZXY=              0.9802
 N-N= 1.227402485116D+02 E-N=-9.070372605687D+02  KE= 2.802028402532D+02
  Exact polarizability:  34.493   0.730  26.270  -0.045  -0.009  17.626
 Approx polarizability:  26.137   1.636  26.067  -0.022   0.008  15.524
 No NMR shielding tensors so no spin-rotation constants.
 Leave Link  601 at Sun Mar  6 20:07:34 2022, MaxMem= 16106127360 cpu:               7.2 elap:               0.3
 (Enter /sw/contrib/gaussian/g16/B01/g16/l701.exe)
 ... and contract with generalized density number  2.
 Compute integral second derivatives.
 Leave Link  701 at Sun Mar  6 20:07:34 2022, MaxMem= 16106127360 cpu:               5.9 elap:               0.2
 (Enter /sw/contrib/gaussian/g16/B01/g16/l702.exe)
 L702 exits ... SP integral derivatives will be done elsewhere.
 Leave Link  702 at Sun Mar  6 20:07:34 2022, MaxMem= 16106127360 cpu:               0.7 elap:               0.0
 (Enter /sw/contrib/gaussian/g16/B01/g16/l703.exe)
 Integral derivatives from FoFJK, PRISM(SPDF).
 Compute integral second derivatives, UseDBF=F ICtDFT=           0.
 Calling FoFJK, ICntrl=  10100127 FMM=F ISym2X=0 I1Cent= 0 IOpClX= 0 NMat=1 NMatS=1 NMatT=0.
 FoFJK:  IHMeth= 1 ICntrl=10100127 DoSepK=F KAlg= 0 I1Cent=           0 FoldK=F
 IRaf=         0 NMat=       1 IRICut=       1 DoRegI=T DoRafI=F ISym2E= 0 IDoP0=0 IntGTp=1.
 FoFCou: FMM=F IPFlag=           0 FMFlag=      100000 FMFlg1=         800
         NFxFlg=           0 DoJE=F BraDBF=F KetDBF=F FulRan=T
         wScrn=  0.000000 ICntrl=  10100127 IOpCl=  0 I1Cent=           0 NGrid=           0
         NMat0=    1 NMatS0=      1 NMatT0=    0 NMatD0=    1 NMtDS0=    0 NMtDT0=    0
 Symmetry not used in FoFCou.
 Leave Link  703 at Sun Mar  6 20:07:50 2022, MaxMem= 16106127360 cpu:             447.2 elap:              16.0
 (Enter /sw/contrib/gaussian/g16/B01/g16/l716.exe)
 Dipole        =-2.38513625D-01-3.59429547D-01 2.07339062D-02
 Polarizability= 3.44933141D+01 7.30055978D-01 2.62699076D+01
                -4.50701610D-02-9.44404527D-03 1.76259567D+01
 Full mass-weighted force constant matrix:
 Low frequencies ---  -19.0649  -11.1429   -0.0012   -0.0012   -0.0011    8.0000
 Low frequencies ---  350.7914  395.3452  521.5292
 Diagonal vibrational polarizability:
       13.8273448       3.4646532      16.3296185
 Harmonic frequencies (cm**-1), IR intensities (KM/Mole), Raman scattering
 activities (A**4/AMU), depolarization ratios for plane and unpolarized
 incident light, reduced masses (AMU), force constants (mDyne/A),
 and normal coordinates:
                      1                      2                      3
                      A                      A                      A
 Frequencies --    350.7909               395.3265               521.5290
 Red. masses --      1.5398                 7.1602                 2.9609
 Frc consts  --      0.1116                 0.6593                 0.4745
 IR Inten    --     63.5965                 7.8159                25.3148
  Atom  AN      X      Y      Z        X      Y      Z        X      Y      Z
     1   1     0.06   0.01   0.98     0.73  -0.23  -0.04    -0.03   0.03   0.93
     2   8     0.02  -0.00  -0.11     0.45   0.06   0.03    -0.03  -0.01   0.05
     3   8     0.00  -0.00   0.11     0.00  -0.11  -0.05     0.00   0.01  -0.18
     4   7    -0.01   0.00  -0.10    -0.10  -0.04   0.06     0.00  -0.01   0.27
     5   8    -0.02   0.00   0.03    -0.41   0.10  -0.03     0.03  -0.00  -0.17
                      4                      5                      6
                      A                      A                      A
 Frequencies --    711.5573               837.2714               970.9974
 Red. masses --     13.2977                12.3558                 9.7936
 Frc consts  --      3.9669                 5.1033                 5.4404
 IR Inten    --    217.3190                30.5590                12.7831
  Atom  AN      X      Y      Z        X      Y      Z        X      Y      Z
     1   1    -0.28   0.21  -0.06    -0.26   0.39   0.03    -0.51   0.37   0.01
     2   8    -0.05  -0.06  -0.01    -0.31   0.48  -0.00     0.06  -0.25   0.00
     3   8     0.64   0.25   0.00     0.32  -0.21   0.00    -0.05   0.54  -0.00
     4   7    -0.60  -0.13  -0.01     0.38  -0.21   0.00     0.33  -0.19  -0.01
     5   8    -0.05  -0.09   0.01    -0.33  -0.11  -0.00    -0.27  -0.15   0.00
                      7                      8                      9
                      A                      A                      A
 Frequencies --   1434.7968              1570.1095              3488.1692
 Red. masses --      1.3055                 6.3817                 1.0638
 Frc consts  --      1.5835                 9.2693                 7.6260
 IR Inten    --     79.8410               149.9255                42.4328
  Atom  AN      X      Y      Z        X      Y      Z        X      Y      Z
     1   1    -0.66   0.74   0.01     0.51  -0.59   0.00     0.71   0.70  -0.04
     2   8     0.08   0.00  -0.00    -0.03  -0.01   0.00    -0.04  -0.04   0.00
     3   8    -0.01  -0.06   0.00     0.06   0.03  -0.00    -0.00  -0.00   0.00
     4   7    -0.02   0.08   0.00     0.04   0.47   0.01     0.00   0.00  -0.00
     5   8    -0.01  -0.05  -0.00    -0.10  -0.39  -0.01     0.00  -0.00   0.00

 -------------------
 - Thermochemistry -
 -------------------
 Temperature   298.150 Kelvin.  Pressure   1.00000 Atm.
 Atom     1 has atomic number  1 and mass   1.00783
 Atom     2 has atomic number  8 and mass  15.99491
 Atom     3 has atomic number  8 and mass  15.99491
 Atom     4 has atomic number  7 and mass  14.00307
 Atom     5 has atomic number  8 and mass  15.99491
 Molecular mass:    62.99564 amu.
 Principal axes and moments of inertia in atomic units:
                           1         2         3
     Eigenvalues --    84.48692 222.78929 307.18596
           X            0.99987  -0.01593   0.00034
           Y            0.01593   0.99987  -0.00180
           Z           -0.00031   0.00180   1.00000
 This molecule is an asymmetric top.
 Rotational symmetry number  1.
 Rotational temperatures (Kelvin)      1.02518     0.38877     0.28196
 Rotational constants (GHZ):          21.36119     8.10066     5.87508
 Zero-point vibrational energy      61491.3 (Joules/Mol)
                                   14.69678 (Kcal/Mol)
 Warning -- explicit consideration of   3 degrees of freedom as
           vibrations may cause significant error
 Vibrational temperatures:    504.71   568.79   750.36  1023.77  1204.65
          (Kelvin)           1397.05  2064.35  2259.04  5018.70
 
 Zero-point correction=                           0.023421 (Hartree/Particle)
 Thermal correction to Energy=                    0.027364
 Thermal correction to Enthalpy=                  0.028308
 Thermal correction to Gibbs Free Energy=        -0.002558
 Sum of electronic and zero-point Energies=           -280.431592
 Sum of electronic and thermal Energies=              -280.427649
 Sum of electronic and thermal Enthalpies=            -280.426705
 Sum of electronic and thermal Free Energies=         -280.457571
 
                     E (Thermal)             CV                S
                      KCal/Mol        Cal/Mol-Kelvin    Cal/Mol-Kelvin
 Total                   17.171             12.179             64.964
 Electronic               0.000              0.000              0.000
 Translational            0.889              2.981             38.341
 Rotational               0.889              2.981             23.274
 Vibrational             15.394              6.217              3.350
 Vibration     1          0.728              1.574              1.163
 Vibration     2          0.762              1.480              0.980
 Vibration     3          0.877              1.202              0.606
                       Q            Log10(Q)             Ln(Q)
 Total Bot       0.150230D+02          1.176757          2.709583
 Total V=0       0.890375D+12         11.949573         27.514909
 Vib (Bot)       0.280834D-10        -10.551551        -24.295844
 Vib (Bot)    1  0.525682D+00         -0.279277         -0.643059
 Vib (Bot)    2  0.452395D+00         -0.344482         -0.793200
 Vib (Bot)    3  0.309066D+00         -0.509948         -1.174199
 Vib (V=0)       0.166443D+01          0.221265          0.509482
 Vib (V=0)    1  0.122549D+01          0.088311          0.203344
 Vib (V=0)    2  0.117429D+01          0.069774          0.160660
 Vib (V=0)    3  0.108781D+01          0.036554          0.084168
 Electronic      0.100000D+01          0.000000          0.000000
 Translational   0.196526D+08          7.293420         16.793719
 Rotational      0.272200D+05          4.434888         10.211707
 
                                                                title
                                                             IR Spectrum
 
     3                                                                     1    1                                                    
     4                                                                     5    4                9    8    7      5   3 3            
     8                                                                     7    3                7    3    1      2   9 5            
     8                                                                     0    5                1    7    2      2   5 1            
 
     X                                                                     X    X                X    X    X      X   X X            
     X                                                                     X    X                     X    X      X     X            
     X                                                                     X    X                     X    X            X            
     X                                                                     X    X                          X            X            
                                                                           X    X                          X            X            
                                                                           X    X                          X            X            
                                                                           X    X                          X                         
                                                                           X                               X                         
                                                                           X                               X                         
                                                                           X                               X                         
                                                                           X                               X                         
                                                                           X                               X                         
                                                                           X                               X                         
                                                                           X                               X                         
                                                                                                           X                         
                                                                                                           X                         
                                                                                                           X                         
                                                                                                           X                         
                                                                                                           X                         
                                                                                                           X                         
 
 ***** Axes restored to original set *****
 -------------------------------------------------------------------
 Center     Atomic                   Forces (Hartrees/Bohr)
 Number     Number              X              Y              Z
 -------------------------------------------------------------------
      1        1          -0.000047662   -0.000992761    0.000085127
      2        8          -0.000296528   -0.001417526   -0.000028131
      3        8           0.000190175    0.004009761   -0.000283016
      4        7           0.000478389   -0.004982218    0.000537214
      5        8          -0.000324374    0.003382744   -0.000311194
 -------------------------------------------------------------------
 Cartesian Forces:  Max     0.004982218 RMS     0.001936881
 -----------------------------------------------------------------------------------------------
                       Internal Coordinate Forces (Hartree/Bohr or radian)
  Cent   Atom   N1       Length/X         N2         Alpha/Y        N3         Beta/Z          J
 -----------------------------------------------------------------------------------------------
      1  H 
      2  O        1  -0.000085(     1)
      3  O        2   0.000328(     2)      1   0.000089(     5)
      4  N        3  -0.000102(     3)      2   0.000411(     6)      1   0.001817(     8)     0
      5  O        4   0.000235(     4)      3  -0.000046(     7)      2   0.007003(     9)     0
 -----------------------------------------------------------------------------------------------
 Internal  Forces:  Max     0.007003460 RMS     0.002420027
 Force constants in Cartesian coordinates: 
                1             2             3             4             5 
      1  0.722304D-01
      2  0.793094D-03  0.600094D-02
      3  0.240199D-01 -0.652803D-03  0.436834D+00
      4 -0.518892D-01  0.389744D-03 -0.474786D-02  0.281125D+00
      5  0.112781D-03 -0.240981D-02 -0.224452D-03  0.147523D-02  0.121121D-01
      6  0.322654D-01  0.543118D-03 -0.420648D+00 -0.123782D-01  0.128736D-02
      7 -0.251490D-01 -0.269560D-03 -0.158180D-01 -0.170911D+00 -0.144971D-02
      8 -0.681726D-03 -0.418476D-02  0.891178D-03 -0.141108D-02 -0.188626D-01
      9 -0.439757D-01 -0.583304D-03 -0.198744D-01  0.105589D-01 -0.111365D-02
     10 -0.573103D-02 -0.237741D-03  0.647107D-02 -0.840537D-01 -0.138237D-02
     11  0.525976D-04  0.798655D-02 -0.839991D-03  0.181698D-03  0.197129D-01
     12 -0.191526D-01  0.620023D-03  0.118988D-01  0.106806D-01 -0.234388D-03
     13  0.105389D-01 -0.675537D-03 -0.992512D-02  0.257288D-01  0.124406D-02
     14 -0.276747D-03 -0.739292D-02  0.826067D-03 -0.635588D-03 -0.105526D-01
     15  0.684299D-02  0.729661D-04 -0.821012D-02 -0.411349D-02  0.285131D-03
                6             7             8             9            10 
      6  0.522430D+00
      7 -0.910975D-01  0.303847D+00
      8 -0.212686D-02  0.303980D-02  0.410093D-01
      9 -0.964346D-01  0.812440D-01  0.833575D-02  0.316169D+00
     10  0.402732D-01 -0.143737D+00 -0.305823D-02 -0.353740D-01  0.553134D+00
     11  0.548514D-03 -0.419467D-02 -0.477975D-01 -0.926013D-03  0.269664D-01
     12 -0.103400D-01  0.160579D-01 -0.919854D-03 -0.252179D-01  0.242184D+00
     13  0.309370D-01  0.359497D-01  0.211123D-02 -0.124532D-01 -0.319612D+00
     14 -0.252125D-03  0.287414D-02  0.298356D-01 -0.571279D-02 -0.222880D-01
     15  0.499256D-02  0.961360D-02 -0.618022D-02 -0.174643D+00 -0.253555D+00
               11            12            13            14            15 
     11  0.594711D-01
     12  0.287141D-01  0.447329D+00
     13 -0.230060D-01 -0.249770D+00  0.247395D+00
     14 -0.393730D-01 -0.281799D-01  0.203262D-01  0.274829D-01
     15 -0.274967D-01 -0.423670D+00  0.241211D+00  0.333188D-01  0.601530D+00
 Force constants in internal coordinates: 
                1             2             3             4             5 
      1  0.436834D+00
      2  0.219282D-01  0.259300D+00
      3  0.498630D-02  0.173419D-01  0.207510D+00
      4 -0.121412D-01  0.225428D-01  0.148903D+00  0.721353D+00
      5  0.446796D-01  0.565700D-01 -0.240304D-01  0.211118D-01  0.250292D+00
      6  0.113799D-01  0.224279D-01  0.918609D-01  0.955501D-02 -0.858374D-02
      7  0.915777D-02 -0.731582D-01  0.121124D+00  0.116981D+00 -0.223424D-01
      8 -0.217043D-02  0.209045D-02  0.198330D-02 -0.133608D-02  0.304400D-02
      9 -0.340261D-02  0.615373D-02  0.410382D-02 -0.188501D-02  0.417415D-02
                6             7             8             9 
      6  0.520273D+00
      7  0.616546D-01  0.662394D+00
      8  0.431183D-02  0.334238D-02  0.199299D-01
      9  0.479384D-02  0.293064D-02  0.276489D-01  0.107200D+00
 Leave Link  716 at Sun Mar  6 20:07:50 2022, MaxMem= 16106127360 cpu:               1.1 elap:               0.1
 (Enter /sw/contrib/gaussian/g16/B01/g16/l103.exe)

 GradGradGradGradGradGradGradGradGradGradGradGradGradGradGradGradGradGrad
 Berny optimization.
 Search for a local minimum.
 Step number   1 out of a maximum of    2
 All quantities printed in internal units (Hartrees-Bohrs-Radians)
 Second derivative matrix not updated -- analytic derivatives used.
 The second derivative matrix:
                          r1        r2        r3        r4        a1
           r1           0.43683
           r2           0.02193   0.25930
           r3           0.00499   0.01734   0.20751
           r4          -0.01214   0.02254   0.14890   0.72135
           a1           0.04468   0.05657  -0.02403   0.02111   0.25029
           a2           0.01138   0.02243   0.09186   0.00956  -0.00858
           a3           0.00916  -0.07316   0.12112   0.11698  -0.02234
           d1          -0.00217   0.00209   0.00198  -0.00134   0.00304
           d2          -0.00340   0.00615   0.00410  -0.00189   0.00417
                          a2        a3        d1        d2
           a2           0.52027
           a3           0.06165   0.66239
           d1           0.00431   0.00334   0.01993
           d2           0.00479   0.00293   0.02765   0.10720
 ITU=  0
     Eigenvalues ---    0.01186   0.11385   0.12511   0.20350   0.27645
     Eigenvalues ---    0.44943   0.51491   0.60719   0.88278
 Angle between quadratic step and forces=  14.26 degrees.
 Linear search not attempted -- first point.
 Variable       Old X    -DE/DX   Delta X   Delta X   Delta X     New X
                                 (Linear)    (Quad)   (Total)
    r1        1.86209  -0.00009   0.00000   0.00050   0.00050   1.86259
    r2        2.69614   0.00033   0.00000  -0.00007  -0.00007   2.69607
    r3        2.60992  -0.00010   0.00000  -0.00300  -0.00300   2.60692
    r4        2.25782   0.00024   0.00000   0.00118   0.00118   2.25900
    a1        1.75642   0.00009   0.00000  -0.00120  -0.00120   1.75522
    a2        1.97463   0.00041   0.00000   0.00068   0.00068   1.97530
    a3        1.99550  -0.00005   0.00000  -0.00014  -0.00014   1.99536
    d1        0.00000   0.00182   0.00000   0.00122   0.00122   0.00122
    d2       -0.06479   0.00700   0.00000   0.06519   0.06519   0.00040
         Item               Value     Threshold  Converged?
 Maximum Force            0.007003     0.000450     NO 
 RMS     Force            0.002420     0.000300     NO 
 Maximum Displacement     0.065192     0.001800     NO 
 RMS     Displacement     0.021766     0.001200     NO 
 Predicted change in Energy=-2.297395D-04
                       ----------------------------
                       ! Non-Optimized Parameters !
                       ! (Angstroms and Degrees)  !
 ----------------------                            ----------------------
 !      Name          Value   Derivative information (Atomic Units)     !
 ------------------------------------------------------------------------
 !       r1          0.9856   -DE/DX =   -0.0001                        !
 !       r2          1.4267   -DE/DX =    0.0003                        !
 !       r3          1.3795   -DE/DX =   -0.0001                        !
 !       r4          1.1954   -DE/DX =    0.0002                        !
 !       a1        100.567    -DE/DX =    0.0001                        !
 !       a2        113.1766   -DE/DX =    0.0004                        !
 !       a3        114.3258   -DE/DX =    0.0                           !
 !       d1          0.0698   -DE/DX =    0.0018                        !
 !       d2          0.0231   -DE/DX =    0.007                         !
 ------------------------------------------------------------------------
 GradGradGradGradGradGradGradGradGradGradGradGradGradGradGradGradGradGrad

 Leave Link  103 at Sun Mar  6 20:07:50 2022, MaxMem= 16106127360 cpu:               0.5 elap:               0.0
 (Enter /sw/contrib/gaussian/g16/B01/g16/l9999.exe)

 ----------------------------------------------------------------------

 Electric dipole moment (input orientation):
 (Debye = 10**-18 statcoulomb cm , SI units = C m)
                  (au)            (Debye)         (10**-30 SI)
   Tot        0.431866D+00      0.109769D+01      0.366151D+01
   x         -0.110439D+00     -0.280708D+00     -0.936342D+00
   y          0.607666D-02      0.154453D-01      0.515201D-01
   z         -0.417462D+00     -0.106108D+01     -0.353939D+01

 Dipole polarizability, Alpha (input orientation).
 (esu units = cm**3 , SI units = C**2 m**2 J**-1)
 Alpha(0;0):
               (au)            (10**-24 esu)      (10**-40 SI)
   iso        0.261297D+02      0.387203D+01      0.430821D+01
   aniso      0.146639D+02      0.217297D+01      0.241775D+01
   xx         0.291713D+02      0.432274D+01      0.480969D+01
   yx        -0.402959D-01     -0.597124D-02     -0.664390D-02
   yy         0.176380D+02      0.261369D+01      0.290812D+01
   zx        -0.399756D+01     -0.592377D+00     -0.659108D+00
   zy         0.403202D+00      0.597483D-01      0.664790D-01
   zz         0.315799D+02      0.467966D+01      0.520682D+01

 ----------------------------------------------------------------------

 Dipole orientation:
     1         -0.00000000          0.00000000          0.00000000
     8         -0.47618434         -0.02620096         -1.79998570
     8          1.95827863         -0.03805077         -2.95861801
     7          3.91569669         -0.01017926         -1.23252560
     8          3.25531444          0.15211515          0.92045381

 Electric dipole moment (dipole orientation):
 (Debye = 10**-18 statcoulomb cm , SI units = C m)
                  (au)            (Debye)         (10**-30 SI)
   Tot        0.431866D+00      0.109769D+01      0.366151D+01
   x          0.000000D+00      0.000000D+00      0.000000D+00
   y          0.000000D+00      0.000000D+00      0.000000D+00
   z          0.431866D+00      0.109769D+01      0.366151D+01

 Dipole polarizability, Alpha (dipole orientation).
 (esu units = cm**3 , SI units = C**2 m**2 J**-1)
 Alpha(0;0):
               (au)            (10**-24 esu)      (10**-40 SI)
   iso        0.261297D+02      0.387203D+01      0.430821D+01
   aniso      0.146639D+02      0.217297D+01      0.241775D+01
   xx         0.313048D+02      0.463889D+01      0.516146D+01
   yx         0.224314D+00      0.332400D-01      0.369844D-01
   yy         0.176518D+02      0.261573D+01      0.291039D+01
   zx         0.406672D+01      0.602626D+00      0.670512D+00
   zy         0.552903D+00      0.819318D-01      0.911614D-01
   zz         0.294326D+02      0.436146D+01      0.485278D+01

 ----------------------------------------------------------------------
 1\1\GINC-N2095\Freq\RMP2-FC\Aug-CC-pVTZ\H1N1O3\CGAVINH\06-Mar-2022\1\\
 #p freq mp2/aug-cc-pvtz density=current\\title\\0,1\H\O,1,r1\O,2,r2,1,
 a1\N,3,r3,2,a2,1,d1,0\O,4,r4,3,a3,2,d2,0\\r1=0.98537664\r2=1.42673666\
 r3=1.38110764\r4=1.19478846\a1=100.6355057\a2=113.13777052\a3=114.3339
 2022\d1=0.\d2=-3.71211614\\Version=ES64L-G16RevB.01\State=1-A\HF=-279.
 5062723\MP2=-280.4550129\RMSD=6.732e-09\RMSF=1.937e-03\ZeroPoint=0.023
 4208\Thermal=0.0273641\Dipole=-0.1104391,0.0060767,-0.417462\DipoleDer
 iv=0.3164833,-0.0028099,0.0383057,-0.0035737,0.2982032,0.0003492,-0.02
 38435,0.0019269,0.1991879,-0.5270601,0.0062694,0.2800901,0.0038529,-0.
 2544987,-0.0102538,-0.1055373,0.0025089,-0.1252476,0.0026359,0.0015915
 ,0.3371843,-0.0099023,-0.0104754,0.0182103,0.443254,-0.0300173,-0.9207
 973,0.2002084,0.0127702,-0.1412926,-0.00747,0.0138199,0.0373554,-0.667
 4024,0.0451121,1.7162433,0.0077325,-0.0178212,-0.5142875,0.0170931,-0.
 0470489,-0.0456611,0.3535293,-0.0195306,-0.8693863\Polar=29.171265,-0.
 0402959,17.6380242,-3.9975571,0.4032018,31.5798892\Quadrupole=0.150409
 1,0.604979,-0.7553881,-0.0483757,1.4074,-0.0850754\PG=C01 [X(H1N1O3)]\
 NImag=0\\0.07223035,0.00079309,0.00600094,0.02401989,-0.00065280,0.436
 83371,-0.05188917,0.00038974,-0.00474786,0.28112501,0.00011278,-0.0024
 0981,-0.00022445,0.00147523,0.01211213,0.03226542,0.00054312,-0.420647
 94,-0.01237818,0.00128736,0.52242997,-0.02514902,-0.00026956,-0.015817
 98,-0.17091086,-0.00144971,-0.09109747,0.30384717,-0.00068173,-0.00418
 476,0.00089118,-0.00141108,-0.01886262,-0.00212686,0.00303980,0.041009
 28,-0.04397567,-0.00058330,-0.01987442,0.01055890,-0.00111365,-0.09643
 458,0.08124396,0.00833575,0.31616947,-0.00573103,-0.00023774,0.0064710
 7,-0.08405373,-0.00138237,0.04027324,-0.14373694,-0.00305823,-0.035373
 98,0.55313417,0.00005260,0.00798655,-0.00083999,0.00018170,0.01971291,
 0.00054851,-0.00419467,-0.04779754,-0.00092601,0.02696638,0.05947110,-
 0.01915263,0.00062002,0.01189877,0.01068064,-0.00023439,-0.01034002,0.
 01605789,-0.00091985,-0.02521795,0.24218422,0.02871415,0.44732922,0.01
 053887,-0.00067554,-0.00992512,0.02572875,0.00124406,0.03093698,0.0359
 4965,0.00211123,-0.01245320,-0.31961247,-0.02300600,-0.24977012,0.2473
 9519,-0.00027675,-0.00739292,0.00082607,-0.00063559,-0.01055262,-0.000
 25213,0.00287414,0.02983564,-0.00571279,-0.02228804,-0.03937302,-0.028
 17993,0.02032624,0.02748292,0.00684299,0.00007297,-0.00821012,-0.00411
 349,0.00028513,0.00499256,0.00961360,-0.00618022,-0.17464254,-0.253554
 56,-0.02749666,-0.42367002,0.24121146,0.03331878,0.60153012\\0.0000476
 6,0.00099276,-0.00008513,0.00029653,0.00141753,0.00002813,-0.00019017,
 -0.00400976,0.00028302,-0.00047839,0.00498222,-0.00053721,0.00032437,-
 0.00338274,0.00031119\\\@


 TIME GOES, YOU SAY?  AH NO!
 ALAS, TIME STAYS, WE GO.
    -- A. DOBSON (1840-1921)
 Job cpu time:       0 days  2 hours  7 minutes  4.6 seconds.
 Elapsed time:       0 days  0 hours  4 minutes 40.3 seconds.
 File lengths (MBytes):  RWF=   7239 Int=      0 D2E=      0 Chk=      8 Scr=      1
 Normal termination of Gaussian 16 at Sun Mar  6 20:07:51 2022.
