title                                                                   
Freq      RMP2-FC                                                     Aug-CC-pVTZ         
Number of atoms                            I                5
Info1-9                                    I   N=           9
          33          24           0           0           0         100
           6           2           1
Full Title                                 C   N=           1
title       
Route                                      C   N=           4
#p freq mp2/aug-cc-pvtz density=current         
Charge                                     I                0
Multiplicity                               I                1
Number of electrons                        I               32
Number of alpha electrons                  I               16
Number of beta electrons                   I               16
Number of basis functions                  I              207
Number of independent functions            I              207
Number of point charges in /Mol/           I                0
Number of translation vectors              I                0
Atomic numbers                             I   N=           5
           1           8           8           7           8
Nuclear charges                            R   N=           5
  1.00000000E+00  8.00000000E+00  8.00000000E+00  7.00000000E+00  8.00000000E+00
Current cartesian coordinates              R   N=          15
  2.10913183E+00 -1.14579068E+00  0.00000000E+00  2.50683578E+00  6.73334963E-01
  0.00000000E+00 -8.60442042E-18  1.73575546E+00  0.00000000E+00 -1.88074963E+00
 -7.37853975E-02  0.00000000E+00 -1.12482134E+00 -2.20130437E+00  0.00000000E+00
Number of symbols in /Mol/                 I                0
Force Field                                I                0
Atom Types                                 C   N=           5
                                                            
Int Atom Types                             I   N=           5
           0           0           0           0           0
MM charges                                 R   N=           5
  0.00000000E+00  0.00000000E+00  0.00000000E+00  0.00000000E+00  0.00000000E+00
Integer atomic weights                     I   N=           5
           1          16          16          14          16
Real atomic weights                        R   N=           5
  1.00782504E+00  1.59949146E+01  1.59949146E+01  1.40030740E+01  1.59949146E+01
Atom fragment info                         I   N=           5
           0           0           0           0           0
Atom residue num                           I   N=           5
           0           0           0           0           0
Nuclear spins                              I   N=           5
           1           0           0           2           0
Nuclear ZEff                               R   N=           5
 -1.00000000E+00 -5.60000000E+00 -5.60000000E+00 -4.55000000E+00 -5.60000000E+00
Nuclear ZNuc                               R   N=           5
  1.00000000E+00  8.00000000E+00  8.00000000E+00  7.00000000E+00  8.00000000E+00
Nuclear QMom                               R   N=           5
  0.00000000E+00  0.00000000E+00  0.00000000E+00  2.04400000E+00  0.00000000E+00
Nuclear GFac                               R   N=           5
  2.79284600E+00  0.00000000E+00  0.00000000E+00  4.03761000E-01  0.00000000E+00
MicOpt                                     I   N=           5
          -1          -1          -1          -1          -1
Number of residues                         I                0
Number of secondary structures             I                0
SymInf integers                            I   N=          26
           1           2           1           1           1           1
           1          -1           0           0           0           0
           0           0           0           0           0           0
           0           0           0           0           0           0
           0           0
RotTr to input orientation                 R   N=          12
 -9.76925771E-01  0.00000000E+00  2.13579113E-01  2.13579113E-01  0.00000000E+00
  9.76925771E-01  0.00000000E+00  1.00000000E+00  0.00000000E+00  2.30518220E+00
  0.00000000E+00  6.68885939E-01
Number of contracted shells                I               65
Number of primitive shells                 I              119
Pure/Cartesian d shells                    I                0
Pure/Cartesian f shells                    I                0
Highest angular momentum                   I                3
Largest degree of contraction              I                7
Shell types                                I   N=          65
           0           0           0           0           1           1
           1          -2          -2           0           0           0
           0           0           1           1           1           1
          -2          -2          -2          -3          -3           0
           0           0           0           0           1           1
           1           1          -2          -2          -2          -3
          -3           0           0           0           0           0
           1           1           1           1          -2          -2
          -2          -3          -3           0           0           0
           0           0           1           1           1           1
          -2          -2          -2          -3          -3
Number of primitives per shell             I   N=          65
           3           1           1           1           1           1
           1           1           1           7           6           1
           1           1           3           1           1           1
           1           1           1           1           1           7
           6           1           1           1           3           1
           1           1           1           1           1           1
           1           7           6           1           1           1
           3           1           1           1           1           1
           1           1           1           7           6           1
           1           1           3           1           1           1
           1           1           1           1           1
Shell to atom map                          I   N=          65
           1           1           1           1           1           1
           1           1           1           2           2           2
           2           2           2           2           2           2
           2           2           2           2           2           3
           3           3           3           3           3           3
           3           3           3           3           3           3
           3           4           4           4           4           4
           4           4           4           4           4           4
           4           4           4           5           5           5
           5           5           5           5           5           5
           5           5           5           5           5
Primitive exponents                        R   N=         119
  3.38700000E+01  5.09500000E+00  1.15900000E+00  3.25800000E-01  1.02700000E-01
  2.52600000E-02  1.40700000E+00  3.88000000E-01  1.02000000E-01  1.05700000E+00
  2.47000000E-01  1.53300000E+04  2.29900000E+03  5.22400000E+02  1.47300000E+02
  4.75500000E+01  1.67600000E+01  6.20700000E+00  5.22400000E+02  1.47300000E+02
  4.75500000E+01  1.67600000E+01  6.20700000E+00  6.88200000E-01  1.75200000E+00
  2.38400000E-01  7.37600000E-02  3.44600000E+01  7.74900000E+00  2.28000000E+00
  7.15600000E-01  2.14000000E-01  5.97400000E-02  2.31400000E+00  6.45000000E-01
  2.14000000E-01  1.42800000E+00  5.00000000E-01  1.53300000E+04  2.29900000E+03
  5.22400000E+02  1.47300000E+02  4.75500000E+01  1.67600000E+01  6.20700000E+00
  5.22400000E+02  1.47300000E+02  4.75500000E+01  1.67600000E+01  6.20700000E+00
  6.88200000E-01  1.75200000E+00  2.38400000E-01  7.37600000E-02  3.44600000E+01
  7.74900000E+00  2.28000000E+00  7.15600000E-01  2.14000000E-01  5.97400000E-02
  2.31400000E+00  6.45000000E-01  2.14000000E-01  1.42800000E+00  5.00000000E-01
  1.14200000E+04  1.71200000E+03  3.89300000E+02  1.10000000E+02  3.55700000E+01
  1.25400000E+01  4.64400000E+00  3.89300000E+02  1.10000000E+02  3.55700000E+01
  1.25400000E+01  4.64400000E+00  5.11800000E-01  1.29300000E+00  1.78700000E-01
  5.76000000E-02  2.66300000E+01  5.94800000E+00  1.74200000E+00  5.55000000E-01
  1.72500000E-01  4.91000000E-02  1.65400000E+00  4.69000000E-01  1.51000000E-01
  1.09300000E+00  3.64000000E-01  1.53300000E+04  2.29900000E+03  5.22400000E+02
  1.47300000E+02  4.75500000E+01  1.67600000E+01  6.20700000E+00  5.22400000E+02
  1.47300000E+02  4.75500000E+01  1.67600000E+01  6.20700000E+00  6.88200000E-01
  1.75200000E+00  2.38400000E-01  7.37600000E-02  3.44600000E+01  7.74900000E+00
  2.28000000E+00  7.15600000E-01  2.14000000E-01  5.97400000E-02  2.31400000E+00
  6.45000000E-01  2.14000000E-01  1.42800000E+00  5.00000000E-01
Contraction coefficients                   R   N=         119
  2.54948632E-02  1.90362766E-01  8.52162022E-01  1.00000000E+00  1.00000000E+00
  1.00000000E+00  1.00000000E+00  1.00000000E+00  1.00000000E+00  1.00000000E+00
  1.00000000E+00  5.19808943E-04  4.02025621E-03  2.07128267E-02  8.10105536E-02
  2.35962985E-01  4.42653446E-01  3.57064423E-01 -4.42115008E-05 -1.22591041E-03
 -1.05517725E-02 -6.74452633E-02 -1.71198607E-01  1.07329856E+00  1.00000000E+00
  1.00000000E+00  1.00000000E+00  4.11634896E-02  2.57762836E-01  8.02419274E-01
  1.00000000E+00  1.00000000E+00  1.00000000E+00  1.00000000E+00  1.00000000E+00
  1.00000000E+00  1.00000000E+00  1.00000000E+00  5.19808943E-04  4.02025621E-03
  2.07128267E-02  8.10105536E-02  2.35962985E-01  4.42653446E-01  3.57064423E-01
 -4.42115008E-05 -1.22591041E-03 -1.05517725E-02 -6.74452633E-02 -1.71198607E-01
  1.07329856E+00  1.00000000E+00  1.00000000E+00  1.00000000E+00  4.11634896E-02
  2.57762836E-01  8.02419274E-01  1.00000000E+00  1.00000000E+00  1.00000000E+00
  1.00000000E+00  1.00000000E+00  1.00000000E+00  1.00000000E+00  1.00000000E+00
  5.34563860E-04  4.13435660E-03  2.12335358E-02  8.25006224E-02  2.38138871E-01
  4.42551547E-01  3.53757422E-01 -4.89867350E-05 -1.19527323E-03 -1.03490714E-02
 -6.48680190E-02 -1.71552477E-01  1.07289568E+00  1.00000000E+00  1.00000000E+00
  1.00000000E+00  3.98072123E-02  2.49002660E-01  8.10479727E-01  1.00000000E+00
  1.00000000E+00  1.00000000E+00  1.00000000E+00  1.00000000E+00  1.00000000E+00
  1.00000000E+00  1.00000000E+00  5.19808943E-04  4.02025621E-03  2.07128267E-02
  8.10105536E-02  2.35962985E-01  4.42653446E-01  3.57064423E-01 -4.42115008E-05
 -1.22591041E-03 -1.05517725E-02 -6.74452633E-02 -1.71198607E-01  1.07329856E+00
  1.00000000E+00  1.00000000E+00  1.00000000E+00  4.11634896E-02  2.57762836E-01
  8.02419274E-01  1.00000000E+00  1.00000000E+00  1.00000000E+00  1.00000000E+00
  1.00000000E+00  1.00000000E+00  1.00000000E+00  1.00000000E+00
Coordinates of each shell                  R   N=         195
  2.10913183E+00 -1.14579068E+00  0.00000000E+00  2.10913183E+00 -1.14579068E+00
  0.00000000E+00  2.10913183E+00 -1.14579068E+00  0.00000000E+00  2.10913183E+00
 -1.14579068E+00  0.00000000E+00  2.10913183E+00 -1.14579068E+00  0.00000000E+00
  2.10913183E+00 -1.14579068E+00  0.00000000E+00  2.10913183E+00 -1.14579068E+00
  0.00000000E+00  2.10913183E+00 -1.14579068E+00  0.00000000E+00  2.10913183E+00
 -1.14579068E+00  0.00000000E+00  2.50683578E+00  6.73334963E-01  0.00000000E+00
  2.50683578E+00  6.73334963E-01  0.00000000E+00  2.50683578E+00  6.73334963E-01
  0.00000000E+00  2.50683578E+00  6.73334963E-01  0.00000000E+00  2.50683578E+00
  6.73334963E-01  0.00000000E+00  2.50683578E+00  6.73334963E-01  0.00000000E+00
  2.50683578E+00  6.73334963E-01  0.00000000E+00  2.50683578E+00  6.73334963E-01
  0.00000000E+00  2.50683578E+00  6.73334963E-01  0.00000000E+00  2.50683578E+00
  6.73334963E-01  0.00000000E+00  2.50683578E+00  6.73334963E-01  0.00000000E+00
  2.50683578E+00  6.73334963E-01  0.00000000E+00  2.50683578E+00  6.73334963E-01
  0.00000000E+00  2.50683578E+00  6.73334963E-01  0.00000000E+00  2.56465646E-17
  1.73575546E+00  0.00000000E+00  2.56465646E-17  1.73575546E+00  0.00000000E+00
  2.56465646E-17  1.73575546E+00  0.00000000E+00  2.56465646E-17  1.73575546E+00
  0.00000000E+00  2.56465646E-17  1.73575546E+00  0.00000000E+00  2.56465646E-17
  1.73575546E+00  0.00000000E+00  2.56465646E-17  1.73575546E+00  0.00000000E+00
  2.56465646E-17  1.73575546E+00  0.00000000E+00  2.56465646E-17  1.73575546E+00
  0.00000000E+00  2.56465646E-17  1.73575546E+00  0.00000000E+00  2.56465646E-17
  1.73575546E+00  0.00000000E+00  2.56465646E-17  1.73575546E+00  0.00000000E+00
  2.56465646E-17  1.73575546E+00  0.00000000E+00  2.56465646E-17  1.73575546E+00
  0.00000000E+00 -1.88074963E+00 -7.37853975E-02  0.00000000E+00 -1.88074963E+00
 -7.37853975E-02  0.00000000E+00 -1.88074963E+00 -7.37853975E-02  0.00000000E+00
 -1.88074963E+00 -7.37853975E-02  0.00000000E+00 -1.88074963E+00 -7.37853975E-02
  0.00000000E+00 -1.88074963E+00 -7.37853975E-02  0.00000000E+00 -1.88074963E+00
 -7.37853975E-02  0.00000000E+00 -1.88074963E+00 -7.37853975E-02  0.00000000E+00
 -1.88074963E+00 -7.37853975E-02  0.00000000E+00 -1.88074963E+00 -7.37853975E-02
  0.00000000E+00 -1.88074963E+00 -7.37853975E-02  0.00000000E+00 -1.88074963E+00
 -7.37853975E-02  0.00000000E+00 -1.88074963E+00 -7.37853975E-02  0.00000000E+00
 -1.88074963E+00 -7.37853975E-02  0.00000000E+00 -1.12482134E+00 -2.20130437E+00
  0.00000000E+00 -1.12482134E+00 -2.20130437E+00  0.00000000E+00 -1.12482134E+00
 -2.20130437E+00  0.00000000E+00 -1.12482134E+00 -2.20130437E+00  0.00000000E+00
 -1.12482134E+00 -2.20130437E+00  0.00000000E+00 -1.12482134E+00 -2.20130437E+00
  0.00000000E+00 -1.12482134E+00 -2.20130437E+00  0.00000000E+00 -1.12482134E+00
 -2.20130437E+00  0.00000000E+00 -1.12482134E+00 -2.20130437E+00  0.00000000E+00
 -1.12482134E+00 -2.20130437E+00  0.00000000E+00 -1.12482134E+00 -2.20130437E+00
  0.00000000E+00 -1.12482134E+00 -2.20130437E+00  0.00000000E+00 -1.12482134E+00
 -2.20130437E+00  0.00000000E+00 -1.12482134E+00 -2.20130437E+00  0.00000000E+00
Num ILSW                                   I              100
ILSW                                       I   N=         100
           0           0           0           0           2           0
           0           0           0           0           0          -1
           5           0           0           0           2           0
           0           0           0           0           1           0
           1           0           0           0           0           0
           0           0      100000           0          -1           0
           0           0           0           0           0           0
           0           0           0           1           1           0
           0 -2000000000           1           0           0           0
           0           0           4          52           0           0
           0           0           0           0           0           0
           0           0           0           5           4           1
           0           0           0           0           0           0
           0           0           0           0           0           0
           0           0           0           0           0           0
           0           0           0           0           0           0
           0           0           0           0
Num RLSW                                   I               52
RLSW                                       R   N=          52
  1.00000000E+00  1.00000000E+00  1.00000000E+00  1.00000000E+00  1.00000000E+00
  0.00000000E+00  0.00000000E+00  1.00000000E+00  0.00000000E+00  0.00000000E+00
  0.00000000E+00  0.00000000E+00  1.00000000E+00  0.00000000E+00  0.00000000E+00
  0.00000000E+00  0.00000000E+00  1.00000000E+00  0.00000000E+00  0.00000000E+00
  0.00000000E+00  0.00000000E+00  1.00000000E+00  0.00000000E+00  0.00000000E+00
  0.00000000E+00  0.00000000E+00  1.00000000E+00  0.00000000E+00  0.00000000E+00
  0.00000000E+00  0.00000000E+00  1.00000000E+00  0.00000000E+00  0.00000000E+00
  0.00000000E+00  0.00000000E+00  0.00000000E+00  1.00000000E+00  1.00000000E+00
  0.00000000E+00  1.00000000E+00  0.00000000E+00  0.00000000E+00  0.00000000E+00
  0.00000000E+00  0.00000000E+00  0.00000000E+00  0.00000000E+00  0.00000000E+00
  0.00000000E+00  0.00000000E+00
MxBond                                     I                2
NBond                                      I   N=           5
           1           2           2           2           1
IBond                                      I   N=          10
           2           0           1           3           2           4
           3           5           4           0
RBond                                      R   N=          10
  1.00000000E+00  0.00000000E+00  1.00000000E+00  1.00000000E+00  1.00000000E+00
  1.00000000E+00  1.00000000E+00  2.00000000E+00  2.00000000E+00  0.00000000E+00
Virial Ratio                               R      2.002313675440103E+00
SCF Energy                                 R     -2.795054789867066E+02
MP2 Energy                                 R     -2.804551550483999E+02
Total Energy                               R     -2.804551550483999E+02
Post-SCF wavefunction norm                 R      1.584436005564996E+00
RMS Force                                  R      2.104517525620647E-03
RMS Density                                R      4.687481209370159E-09
NImag                                      I                0
Job Status                                 I                1
Nuclear derivative order                   I                2
External E-field                           R   N=          35
  0.00000000E+00  0.00000000E+00  0.00000000E+00  0.00000000E+00  0.00000000E+00
  0.00000000E+00  0.00000000E+00  0.00000000E+00  0.00000000E+00  0.00000000E+00
  0.00000000E+00  0.00000000E+00  0.00000000E+00  0.00000000E+00  0.00000000E+00
  0.00000000E+00  0.00000000E+00  0.00000000E+00  0.00000000E+00  0.00000000E+00
  0.00000000E+00  0.00000000E+00  0.00000000E+00  0.00000000E+00  0.00000000E+00
  0.00000000E+00  0.00000000E+00  0.00000000E+00  0.00000000E+00  0.00000000E+00
  0.00000000E+00  0.00000000E+00  0.00000000E+00  0.00000000E+00  0.00000000E+00
IOpCl                                      I                0
IROHF                                      I                0
Alpha Orbital Energies                     R   N=         207
 -2.07197229E+01 -2.06870422E+01 -2.06696200E+01 -1.58262036E+01 -1.64213129E+00
 -1.50042949E+00 -1.29556044E+00 -9.59607219E-01 -8.32177451E-01 -7.57945766E-01
 -7.38048710E-01 -6.39368370E-01 -6.16962500E-01 -6.15436922E-01 -5.04192755E-01
 -4.99847362E-01  3.48996755E-02  6.03264112E-02  9.50821062E-02  1.00195847E-01
  1.19825212E-01  1.22279301E-01  1.48487135E-01  1.51036465E-01  1.77566231E-01
  1.80542596E-01  1.89865704E-01  2.10927954E-01  2.16565742E-01  2.35994284E-01
  2.46334868E-01  2.69218088E-01  3.11783777E-01  3.16423725E-01  3.37721608E-01
  3.43411557E-01  3.45812686E-01  3.92821093E-01  4.48605416E-01  4.87731266E-01
  5.04833588E-01  5.18275254E-01  5.45536503E-01  5.61132957E-01  5.99046104E-01
  6.19829794E-01  6.38464721E-01  6.89159091E-01  7.17158092E-01  7.24601951E-01
  7.41765840E-01  7.63072565E-01  7.65851722E-01  7.96627218E-01  8.06305711E-01
  8.40600282E-01  8.42947971E-01  8.51869736E-01  8.84785176E-01  9.06473890E-01
  9.28913007E-01  9.47521434E-01  9.54819451E-01  1.01776308E+00  1.03092241E+00
  1.06057398E+00  1.06599857E+00  1.09358791E+00  1.14303450E+00  1.15543412E+00
  1.16963065E+00  1.22169682E+00  1.22719435E+00  1.24518199E+00  1.35102480E+00
  1.36232223E+00  1.37137468E+00  1.46914753E+00  1.48603441E+00  1.50524776E+00
  1.54140604E+00  1.59562434E+00  1.59703137E+00  1.60540141E+00  1.62766166E+00
  1.69505160E+00  1.73876041E+00  1.80088675E+00  1.82972945E+00  1.88808863E+00
  1.89146127E+00  1.92822167E+00  1.97696507E+00  1.98931945E+00  2.05164172E+00
  2.12281757E+00  2.12966150E+00  2.16372583E+00  2.18724825E+00  2.24365681E+00
  2.25356683E+00  2.29204251E+00  2.34912952E+00  2.36531300E+00  2.38598263E+00
  2.40272988E+00  2.42656931E+00  2.46812135E+00  2.47681285E+00  2.52903179E+00
  2.53745504E+00  2.54706140E+00  2.55784166E+00  2.61479109E+00  2.62579834E+00
  2.66879977E+00  2.67043044E+00  2.74799763E+00  2.80583555E+00  2.81579433E+00
  2.83687247E+00  2.91494059E+00  2.98417382E+00  3.04312788E+00  3.04756905E+00
  3.11429770E+00  3.11434913E+00  3.16840766E+00  3.20417158E+00  3.30352850E+00
  3.32803712E+00  3.36121806E+00  3.46437113E+00  3.67848255E+00  3.86779602E+00
  3.92541857E+00  4.18052130E+00  4.21921010E+00  4.22295117E+00  4.26507868E+00
  4.36807165E+00  4.48641258E+00  4.52079475E+00  4.55278421E+00  4.59548105E+00
  4.69574027E+00  4.80731141E+00  4.89706074E+00  4.91300340E+00  4.93898699E+00
  4.99952418E+00  5.00587899E+00  5.10652124E+00  5.13035370E+00  5.18002552E+00
  5.24994741E+00  5.25847226E+00  5.31612842E+00  5.33785506E+00  5.35378882E+00
  5.54908630E+00  5.64465491E+00  5.70251598E+00  5.86631465E+00  5.99276170E+00
  6.28881649E+00  6.29321701E+00  6.35160877E+00  6.38352654E+00  6.60216570E+00
  6.65746548E+00  6.66897474E+00  6.69027892E+00  6.72820149E+00  6.79788071E+00
  6.80028631E+00  6.85409541E+00  6.96622732E+00  7.01049497E+00  7.05646931E+00
  7.07267884E+00  7.13264273E+00  7.16724683E+00  7.16904398E+00  7.19257398E+00
  7.23657070E+00  7.24288547E+00  7.26904575E+00  7.34482724E+00  7.38570883E+00
  7.41788491E+00  7.44198718E+00  7.45533469E+00  7.55746950E+00  7.65351583E+00
  7.65916920E+00  7.78330593E+00  7.86804972E+00  7.94607965E+00  8.05385732E+00
  8.28307334E+00  8.49172137E+00  8.63834565E+00  1.35664001E+01  1.47397662E+01
  1.50898522E+01  1.57460663E+01
Alpha MO coefficients                      R   N=       42849
  6.38051853E-05 -2.42527361E-05 -1.10578588E-03  8.68849682E-06 -5.54975173E-05
  4.48434318E-05  0.00000000E+00 -1.11710684E-04 -2.96426407E-04  0.00000000E+00
 -2.36537997E-05 -3.63230461E-04  0.00000000E+00  4.27612224E-05  0.00000000E+00
  0.00000000E+00 -2.46572525E-05  5.17002617E-06  2.26042209E-04  0.00000000E+00
  0.00000000E+00 -3.50676711E-05 -2.03824742E-04  3.02791291E-03 -1.21637449E-04
 -8.79363889E-05  3.37331719E-03  2.40438868E-03  9.77060378E-05 -5.15921745E-05
  0.00000000E+00 -6.66073853E-04  2.52994394E-04  0.00000000E+00 -1.86905179E-03
  1.07820035E-03  0.00000000E+00 -5.16757117E-04  2.95287887E-05  0.00000000E+00
  2.44739851E-05  0.00000000E+00  0.00000000E+00 -1.28591901E-05  5.12005547E-05
 -4.28655668E-04  0.00000000E+00  0.00000000E+00  3.99462959E-04 -6.53259080E-04
 -3.53295960E-04  0.00000000E+00  0.00000000E+00  5.19939329E-04 -7.44397194E-04
  0.00000000E+00  7.13934437E-05 -5.10894289E-05  0.00000000E+00  0.00000000E+00
 -2.54340299E-05  1.05069527E-04  0.00000000E+00  2.05937056E-04 -5.54483610E-05
  0.00000000E+00  0.00000000E+00 -1.68086836E-04  3.11693921E-04  9.76913376E-01
 -9.17174878E-03  4.33838374E-02  6.79632962E-04 -2.13843331E-03  4.05929341E-04
 -2.13525698E-03  0.00000000E+00 -2.57688827E-04  2.23594545E-03  0.00000000E+00
 -2.22055108E-03 -5.14341933E-04  0.00000000E+00 -2.03757323E-04  9.48158217E-05
  0.00000000E+00  1.06481859E-05  0.00000000E+00  0.00000000E+00 -8.67047066E-06
  4.24858754E-05  8.10776388E-04  0.00000000E+00  0.00000000E+00 -4.52832443E-04
 -1.90484941E-04 -1.51766994E-04  0.00000000E+00  0.00000000E+00 -5.31342455E-04
  3.41759443E-04  0.00000000E+00 -9.40750281E-06 -7.85533020E-05  0.00000000E+00
  0.00000000E+00 -7.27607352E-06  4.57921161E-05  0.00000000E+00  8.59784746E-05
  3.56644683E-06  0.00000000E+00  0.00000000E+00 -3.31478593E-04  3.71629640E-04
  1.04452655E-04  4.57350238E-04 -3.25310207E-04 -8.25591748E-04  3.80845453E-04
 -4.55938378E-05 -1.00147421E-04  0.00000000E+00  7.04730383E-04  1.10742385E-03
  0.00000000E+00 -7.62262723E-04 -6.43669110E-04  0.00000000E+00  2.02239019E-04
  2.16283977E-04  0.00000000E+00 -5.26326253E-05  0.00000000E+00  0.00000000E+00
  1.98219676E-05  9.26498590E-05 -4.17496723E-04  0.00000000E+00  0.00000000E+00
  5.54902635E-05  1.08580816E-03  2.68568137E-05  0.00000000E+00  0.00000000E+00
 -3.14776173E-04  3.80059033E-05  0.00000000E+00 -8.00542504E-05 -1.13652470E-04
  0.00000000E+00  0.00000000E+00 -9.45913162E-05  1.08536716E-04  0.00000000E+00
 -1.24286903E-04  4.57520434E-05  0.00000000E+00  0.00000000E+00  2.44352211E-05
  5.24392486E-04 -7.03756914E-04  5.09145048E-05 -7.01492502E-05  2.07005209E-04
 -2.05026683E-04 -2.91536021E-05 -4.13774024E-05  0.00000000E+00  1.70432198E-04
  2.55173446E-04  0.00000000E+00  5.21567161E-04  3.20552891E-04  0.00000000E+00
 -2.25983153E-04 -6.76244789E-05  0.00000000E+00 -1.31858272E-05  0.00000000E+00
  0.00000000E+00  3.63279520E-06  1.53542333E-05 -1.26006223E-06  0.00000000E+00
  0.00000000E+00 -1.66101579E-04  1.12329104E-05 -1.93993250E-05  0.00000000E+00
  0.00000000E+00 -1.73961925E-04 -4.24055423E-05  0.00000000E+00 -6.05604511E-06
 -9.10820869E-06  0.00000000E+00  0.00000000E+00 -2.17645350E-05  9.68186826E-06
  0.00000000E+00  4.11311707E-05  6.14934226E-05  0.00000000E+00  0.00000000E+00
  1.56414247E-04 -1.06844550E-04  4.08219532E-05  5.85202018E-05 -1.22916125E-04
 -2.90374204E-05  1.63397281E-05  9.91365215E-06  0.00000000E+00  2.39020975E-04
  5.64068808E-05  0.00000000E+00  1.30475571E-04  2.32504583E-05  0.00000000E+00
  1.45107397E-05  0.00000000E+00  0.00000000E+00 -1.31088219E-05  1.57123828E-05
  2.37409273E-05  0.00000000E+00  0.00000000E+00 -9.57254636E-05  6.31276979E-05
 -2.79954419E-04  2.74793895E-05 -1.62573628E-05 -5.27223374E-04  1.61863776E-04
  7.35551460E-06  1.35468206E-05  0.00000000E+00 -1.94085359E-06 -4.02962620E-05
  0.00000000E+00  1.71678500E-04  1.20868426E-04  0.00000000E+00 -4.85463281E-05
  4.96564129E-05  0.00000000E+00 -1.31248416E-06  0.00000000E+00  0.00000000E+00
 -8.40673568E-06 -1.18236141E-05  2.00024005E-05  0.00000000E+00  0.00000000E+00
  4.92917617E-05  1.06576622E-04  6.00570321E-05  0.00000000E+00  0.00000000E+00
 -2.60457431E-05 -7.19360671E-05  0.00000000E+00  7.74187194E-06  1.01670594E-05
  0.00000000E+00  0.00000000E+00 -1.08117005E-06 -2.39457903E-05  0.00000000E+00
 -1.44618535E-05 -3.41921966E-05  0.00000000E+00  0.00000000E+00 -3.47228295E-06
 -2.01664722E-05  7.32890895E-04  2.40087229E-05 -1.83629319E-05  2.80646515E-04
 -3.91399986E-04  1.67802879E-05  2.70996099E-05  0.00000000E+00 -6.72299757E-05
 -1.52325583E-04  0.00000000E+00  1.42838894E-04 -1.87959158E-04  0.00000000E+00
 -1.57216190E-04  1.42644537E-04  0.00000000E+00 -4.15700639E-06  0.00000000E+00
  0.00000000E+00 -2.92945228E-05 -9.34839020E-06 -5.00909663E-05  0.00000000E+00
  0.00000000E+00  7.87956484E-05  1.20111765E-04 -6.32677944E-05  0.00000000E+00
  0.00000000E+00  4.78644112E-05  3.08961962E-05  0.00000000E+00  3.11460618E-06
  3.40058421E-06  0.00000000E+00  0.00000000E+00 -8.18629491E-06 -2.07281414E-06
  0.00000000E+00  3.99049790E-06 -2.55019646E-05  0.00000000E+00  0.00000000E+00
  9.19922958E-05 -1.55047282E-04  2.37370865E-04  1.35909022E-03 -1.47760610E-04
 -6.89571645E-04  8.99339842E-04  6.28022663E-05 -7.14276551E-05  0.00000000E+00
  5.65176421E-04 -2.08253708E-03  0.00000000E+00  1.18061235E-04  4.89435866E-04
  0.00000000E+00  1.83552053E-04 -3.07896824E-04  0.00000000E+00 -1.27867702E-04
  0.00000000E+00  0.00000000E+00 -2.05018539E-04 -1.56885575E-04 -4.60522096E-04
  0.00000000E+00  0.00000000E+00 -6.10035493E-04 -9.12212503E-04 -4.19896624E-05
  0.00000000E+00  0.00000000E+00  6.24118870E-05  1.14432777E-04  0.00000000E+00
  8.51488371E-06  3.66332354E-05  0.00000000E+00  0.00000000E+00 -2.43797550E-05
 -3.83629175E-06  0.00000000E+00 -1.33960547E-04  1.59326936E-04  0.00000000E+00
  0.00000000E+00 -3.15432429E-04 -2.69993757E-05  9.76646221E-01 -9.88621812E-03
  4.35750528E-02  3.68437515E-03 -8.90799540E-04 -4.43440854E-04  2.13135776E-03
  0.00000000E+00  5.05813727E-04 -2.50544849E-03  0.00000000E+00 -6.75434443E-05
  8.13646555E-04  0.00000000E+00  1.04894801E-04 -6.46126959E-05  0.00000000E+00
 -1.94274739E-04  0.00000000E+00  0.00000000E+00 -7.44174718E-05 -4.26716665E-05
  4.08522695E-04  0.00000000E+00  0.00000000E+00  8.61218879E-04  4.77752275E-04
 -2.06774679E-04  0.00000000E+00  0.00000000E+00 -1.38958120E-04 -3.82289638E-05
  0.00000000E+00 -4.46060879E-06  7.03167451E-05  0.00000000E+00  0.00000000E+00
 -2.93653458E-05  1.07795553E-05  0.00000000E+00 -8.87560120E-05  9.20430859E-05
  0.00000000E+00  0.00000000E+00 -1.62154006E-04  2.06225744E-04  3.78883404E-04
  2.02154508E-03  1.33806093E-03 -1.33497886E-05  5.23672097E-05  2.74245642E-04
  0.00000000E+00  3.82328737E-04  1.04668458E-03  0.00000000E+00 -1.06900251E-04
  2.45380940E-04  0.00000000E+00 -2.49788102E-05  0.00000000E+00  0.00000000E+00
  2.72949064E-05 -2.85796555E-05 -2.15302522E-04  0.00000000E+00  0.00000000E+00
 -3.49462102E-04  3.99410004E-04  9.76845839E-01 -9.18606269E-03  4.34390367E-02
  2.61111536E-04 -1.80800348E-03 -2.01677954E-03 -8.47829678E-04  0.00000000E+00
  2.03770754E-03  7.99166300E-04  0.00000000E+00 -4.83579067E-04  6.71850551E-04
  0.00000000E+00  2.04248228E-04 -2.85108772E-04  0.00000000E+00  3.49753641E-05
  0.00000000E+00  0.00000000E+00 -7.95578590E-05  6.74588872E-05  7.51250679E-04
  0.00000000E+00  0.00000000E+00 -1.74360640E-04  3.29024529E-04 -2.49137038E-04
  0.00000000E+00  0.00000000E+00  3.57493674E-04 -1.34864516E-05  0.00000000E+00
 -7.82733286E-05 -7.61849525E-07  0.00000000E+00  0.00000000E+00  1.33401846E-05