title                                                                   
Freq      RMP2-FC                                                     Aug-CC-pVTZ         
Number of atoms                            I                5
Info1-9                                    I   N=           9
          33          24           0           0           0         100
           6           2           1
Full Title                                 C   N=           1
title       
Route                                      C   N=           4
#p freq mp2/aug-cc-pvtz density=current         
Charge                                     I                0
Multiplicity                               I                1
Number of electrons                        I               32
Number of alpha electrons                  I               16
Number of beta electrons                   I               16
Number of basis functions                  I              207
Number of independent functions            I              207
Number of point charges in /Mol/           I                0
Number of translation vectors              I                0
Atomic numbers                             I   N=           5
           1           8           8           7           8
Nuclear charges                            R   N=           5
  1.00000000E+00  8.00000000E+00  8.00000000E+00  7.00000000E+00  8.00000000E+00
Current cartesian coordinates              R   N=          15
  2.93545268E+00  3.14727349E+00  1.82497934E-30  2.74815444E+00  1.32577937E+00
  1.05516011E-30  1.33004173E-16  1.24306165E+00  2.40251763E-31 -4.94404027E-01
 -1.40554294E+00 -6.54706188E-31 -2.68248250E+00 -1.73240014E+00 -9.60868111E-31
Number of symbols in /Mol/                 I                0
Force Field                                I                0
Atom Types                                 C   N=           5
                                                            
Int Atom Types                             I   N=           5
           0           0           0           0           0
MM charges                                 R   N=           5
  0.00000000E+00  0.00000000E+00  0.00000000E+00  0.00000000E+00  0.00000000E+00
Integer atomic weights                     I   N=           5
           1          16          16          14          16
Real atomic weights                        R   N=           5
  1.00782504E+00  1.59949146E+01  1.59949146E+01  1.40030740E+01  1.59949146E+01
Atom fragment info                         I   N=           5
           0           0           0           0           0
Atom residue num                           I   N=           5
           0           0           0           0           0
Nuclear spins                              I   N=           5
           1           0           0           2           0
Nuclear ZEff                               R   N=           5
 -1.00000000E+00 -5.60000000E+00 -5.60000000E+00 -4.55000000E+00 -5.60000000E+00
Nuclear ZNuc                               R   N=           5
  1.00000000E+00  8.00000000E+00  8.00000000E+00  7.00000000E+00  8.00000000E+00
Nuclear QMom                               R   N=           5
  0.00000000E+00  0.00000000E+00  0.00000000E+00  2.04400000E+00  0.00000000E+00
Nuclear GFac                               R   N=           5
  2.79284600E+00  0.00000000E+00  0.00000000E+00  4.03761000E-01  0.00000000E+00
MicOpt                                     I   N=           5
          -1          -1          -1          -1          -1
Number of residues                         I                0
Number of secondary structures             I                0
SymInf integers                            I   N=          26
           1           2           1           1           1           1
           1          -1           0           0           0           0
           0           0           0           0           0           0
           0           0           0           0           0           0
           0           0
RotTr to input orientation                 R   N=          12
 -9.94754891E-01 -8.64138006E-16 -1.02287372E-01  1.02287372E-01  7.96970991E-16
 -9.94754891E-01  9.41125576E-16 -1.00000000E+00 -7.04400386E-16  2.59812958E+00
  0.00000000E+00  3.43102543E+00
Number of contracted shells                I               65
Number of primitive shells                 I              119
Pure/Cartesian d shells                    I                0
Pure/Cartesian f shells                    I                0
Highest angular momentum                   I                3
Largest degree of contraction              I                7
Shell types                                I   N=          65
           0           0           0           0           1           1
           1          -2          -2           0           0           0
           0           0           1           1           1           1
          -2          -2          -2          -3          -3           0
           0           0           0           0           1           1
           1           1          -2          -2          -2          -3
          -3           0           0           0           0           0
           1           1           1           1          -2          -2
          -2          -3          -3           0           0           0
           0           0           1           1           1           1
          -2          -2          -2          -3          -3
Number of primitives per shell             I   N=          65
           3           1           1           1           1           1
           1           1           1           7           6           1
           1           1           3           1           1           1
           1           1           1           1           1           7
           6           1           1           1           3           1
           1           1           1           1           1           1
           1           7           6           1           1           1
           3           1           1           1           1           1
           1           1           1           7           6           1
           1           1           3           1           1           1
           1           1           1           1           1
Shell to atom map                          I   N=          65
           1           1           1           1           1           1
           1           1           1           2           2           2
           2           2           2           2           2           2
           2           2           2           2           2           3
           3           3           3           3           3           3
           3           3           3           3           3           3
           3           4           4           4           4           4
           4           4           4           4           4           4
           4           4           4           5           5           5
           5           5           5           5           5           5
           5           5           5           5           5
Primitive exponents                        R   N=         119
  3.38700000E+01  5.09500000E+00  1.15900000E+00  3.25800000E-01  1.02700000E-01
  2.52600000E-02  1.40700000E+00  3.88000000E-01  1.02000000E-01  1.05700000E+00
  2.47000000E-01  1.53300000E+04  2.29900000E+03  5.22400000E+02  1.47300000E+02
  4.75500000E+01  1.67600000E+01  6.20700000E+00  5.22400000E+02  1.47300000E+02
  4.75500000E+01  1.67600000E+01  6.20700000E+00  6.88200000E-01  1.75200000E+00
  2.38400000E-01  7.37600000E-02  3.44600000E+01  7.74900000E+00  2.28000000E+00
  7.15600000E-01  2.14000000E-01  5.97400000E-02  2.31400000E+00  6.45000000E-01
  2.14000000E-01  1.42800000E+00  5.00000000E-01  1.53300000E+04  2.29900000E+03
  5.22400000E+02  1.47300000E+02  4.75500000E+01  1.67600000E+01  6.20700000E+00
  5.22400000E+02  1.47300000E+02  4.75500000E+01  1.67600000E+01  6.20700000E+00
  6.88200000E-01  1.75200000E+00  2.38400000E-01  7.37600000E-02  3.44600000E+01
  7.74900000E+00  2.28000000E+00  7.15600000E-01  2.14000000E-01  5.97400000E-02
  2.31400000E+00  6.45000000E-01  2.14000000E-01  1.42800000E+00  5.00000000E-01
  1.14200000E+04  1.71200000E+03  3.89300000E+02  1.10000000E+02  3.55700000E+01
  1.25400000E+01  4.64400000E+00  3.89300000E+02  1.10000000E+02  3.55700000E+01
  1.25400000E+01  4.64400000E+00  5.11800000E-01  1.29300000E+00  1.78700000E-01
  5.76000000E-02  2.66300000E+01  5.94800000E+00  1.74200000E+00  5.55000000E-01
  1.72500000E-01  4.91000000E-02  1.65400000E+00  4.69000000E-01  1.51000000E-01
  1.09300000E+00  3.64000000E-01  1.53300000E+04  2.29900000E+03  5.22400000E+02
  1.47300000E+02  4.75500000E+01  1.67600000E+01  6.20700000E+00  5.22400000E+02
  1.47300000E+02  4.75500000E+01  1.67600000E+01  6.20700000E+00  6.88200000E-01
  1.75200000E+00  2.38400000E-01  7.37600000E-02  3.44600000E+01  7.74900000E+00
  2.28000000E+00  7.15600000E-01  2.14000000E-01  5.97400000E-02  2.31400000E+00
  6.45000000E-01  2.14000000E-01  1.42800000E+00  5.00000000E-01
Contraction coefficients                   R   N=         119
  2.54948632E-02  1.90362766E-01  8.52162022E-01  1.00000000E+00  1.00000000E+00
  1.00000000E+00  1.00000000E+00  1.00000000E+00  1.00000000E+00  1.00000000E+00
  1.00000000E+00  5.19808943E-04  4.02025621E-03  2.07128267E-02  8.10105536E-02
  2.35962985E-01  4.42653446E-01  3.57064423E-01 -4.42115008E-05 -1.22591041E-03
 -1.05517725E-02 -6.74452633E-02 -1.71198607E-01  1.07329856E+00  1.00000000E+00
  1.00000000E+00  1.00000000E+00  4.11634896E-02  2.57762836E-01  8.02419274E-01
  1.00000000E+00  1.00000000E+00  1.00000000E+00  1.00000000E+00  1.00000000E+00
  1.00000000E+00  1.00000000E+00  1.00000000E+00  5.19808943E-04  4.02025621E-03
  2.07128267E-02  8.10105536E-02  2.35962985E-01  4.42653446E-01  3.57064423E-01
 -4.42115008E-05 -1.22591041E-03 -1.05517725E-02 -6.74452633E-02 -1.71198607E-01
  1.07329856E+00  1.00000000E+00  1.00000000E+00  1.00000000E+00  4.11634896E-02
  2.57762836E-01  8.02419274E-01  1.00000000E+00  1.00000000E+00  1.00000000E+00
  1.00000000E+00  1.00000000E+00  1.00000000E+00  1.00000000E+00  1.00000000E+00
  5.34563860E-04  4.13435660E-03  2.12335358E-02  8.25006224E-02  2.38138871E-01
  4.42551547E-01  3.53757422E-01 -4.89867350E-05 -1.19527323E-03 -1.03490714E-02
 -6.48680190E-02 -1.71552477E-01  1.07289568E+00  1.00000000E+00  1.00000000E+00
  1.00000000E+00  3.98072123E-02  2.49002660E-01  8.10479727E-01  1.00000000E+00
  1.00000000E+00  1.00000000E+00  1.00000000E+00  1.00000000E+00  1.00000000E+00
  1.00000000E+00  1.00000000E+00  5.19808943E-04  4.02025621E-03  2.07128267E-02
  8.10105536E-02  2.35962985E-01  4.42653446E-01  3.57064423E-01 -4.42115008E-05
 -1.22591041E-03 -1.05517725E-02 -6.74452633E-02 -1.71198607E-01  1.07329856E+00
  1.00000000E+00  1.00000000E+00  1.00000000E+00  4.11634896E-02  2.57762836E-01
  8.02419274E-01  1.00000000E+00  1.00000000E+00  1.00000000E+00  1.00000000E+00
  1.00000000E+00  1.00000000E+00  1.00000000E+00  1.00000000E+00
Coordinates of each shell                  R   N=         195
  2.93545268E+00  3.14727349E+00  9.80098491E-31  2.93545268E+00  3.14727349E+00
  9.80098491E-31  2.93545268E+00  3.14727349E+00  9.80098491E-31  2.93545268E+00
  3.14727349E+00  9.80098491E-31  2.93545268E+00  3.14727349E+00  9.80098491E-31
  2.93545268E+00  3.14727349E+00  9.80098491E-31  2.93545268E+00  3.14727349E+00
  9.80098491E-31  2.93545268E+00  3.14727349E+00  9.80098491E-31  2.93545268E+00
  3.14727349E+00  9.80098491E-31  2.74815444E+00  1.32577937E+00  6.00035438E-31
  2.74815444E+00  1.32577937E+00  6.00035438E-31  2.74815444E+00  1.32577937E+00
  6.00035438E-31  2.74815444E+00  1.32577937E+00  6.00035438E-31  2.74815444E+00
  1.32577937E+00  6.00035438E-31  2.74815444E+00  1.32577937E+00  6.00035438E-31
  2.74815444E+00  1.32577937E+00  6.00035438E-31  2.74815444E+00  1.32577937E+00
  6.00035438E-31  2.74815444E+00  1.32577937E+00  6.00035438E-31  2.74815444E+00
  1.32577937E+00  6.00035438E-31  2.74815444E+00  1.32577937E+00  6.00035438E-31
  2.74815444E+00  1.32577937E+00  6.00035438E-31  2.74815444E+00  1.32577937E+00
  6.00035438E-31  2.74815444E+00  1.32577937E+00  6.00035438E-31  1.25431297E-17
  1.24306165E+00  2.43543383E-31  1.25431297E-17  1.24306165E+00  2.43543383E-31
  1.25431297E-17  1.24306165E+00  2.43543383E-31  1.25431297E-17  1.24306165E+00
  2.43543383E-31  1.25431297E-17  1.24306165E+00  2.43543383E-31  1.25431297E-17
  1.24306165E+00  2.43543383E-31  1.25431297E-17  1.24306165E+00  2.43543383E-31
  1.25431297E-17  1.24306165E+00  2.43543383E-31  1.25431297E-17  1.24306165E+00
  2.43543383E-31  1.25431297E-17  1.24306165E+00  2.43543383E-31  1.25431297E-17
  1.24306165E+00  2.43543383E-31  1.25431297E-17  1.24306165E+00  2.43543383E-31
  1.25431297E-17  1.24306165E+00  2.43543383E-31  1.25431297E-17  1.24306165E+00
  2.43543383E-31 -4.94404027E-01 -1.40554294E+00 -3.36595860E-31 -4.94404027E-01
 -1.40554294E+00 -3.36595860E-31 -4.94404027E-01 -1.40554294E+00 -3.36595860E-31
 -4.94404027E-01 -1.40554294E+00 -3.36595860E-31 -4.94404027E-01 -1.40554294E+00
 -3.36595860E-31 -4.94404027E-01 -1.40554294E+00 -3.36595860E-31 -4.94404027E-01
 -1.40554294E+00 -3.36595860E-31 -4.94404027E-01 -1.40554294E+00 -3.36595860E-31
 -4.94404027E-01 -1.40554294E+00 -3.36595860E-31 -4.94404027E-01 -1.40554294E+00
 -3.36595860E-31 -4.94404027E-01 -1.40554294E+00 -3.36595860E-31 -4.94404027E-01
 -1.40554294E+00 -3.36595860E-31 -4.94404027E-01 -1.40554294E+00 -3.36595860E-31
 -4.94404027E-01 -1.40554294E+00 -3.36595860E-31 -2.68248250E+00 -1.73240014E+00
 -6.71569754E-31 -2.68248250E+00 -1.73240014E+00 -6.71569754E-31 -2.68248250E+00
 -1.73240014E+00 -6.71569754E-31 -2.68248250E+00 -1.73240014E+00 -6.71569754E-31
 -2.68248250E+00 -1.73240014E+00 -6.71569754E-31 -2.68248250E+00 -1.73240014E+00
 -6.71569754E-31 -2.68248250E+00 -1.73240014E+00 -6.71569754E-31 -2.68248250E+00
 -1.73240014E+00 -6.71569754E-31 -2.68248250E+00 -1.73240014E+00 -6.71569754E-31
 -2.68248250E+00 -1.73240014E+00 -6.71569754E-31 -2.68248250E+00 -1.73240014E+00
 -6.71569754E-31 -2.68248250E+00 -1.73240014E+00 -6.71569754E-31 -2.68248250E+00
 -1.73240014E+00 -6.71569754E-31 -2.68248250E+00 -1.73240014E+00 -6.71569754E-31
Num ILSW                                   I              100
ILSW                                       I   N=         100
           0           0           0           0           2           0
           0           0           0           0           0          -1
           5           0           0           0           2           0
           0           0           0           0           1           0
           1           0           0           0           0           0
           0           0      100000           0          -1           0
           0           0           0           0           0           0
           0           0           0           1           1           0
           0 -2000000000           1           0           0           0
           0           0           4          52           0           0
           0           0           0           0           0           0
           0           0           0           5           4           1
           0           0           0           0           0           0
           0           0           0           0           0           0
           0           0           0           0           0           0
           0           0           0           0           0           0
           0           0           0           0
Num RLSW                                   I               52
RLSW                                       R   N=          52
  1.00000000E+00  1.00000000E+00  1.00000000E+00  1.00000000E+00  1.00000000E+00
  0.00000000E+00  0.00000000E+00  1.00000000E+00  0.00000000E+00  0.00000000E+00
  0.00000000E+00  0.00000000E+00  1.00000000E+00  0.00000000E+00  0.00000000E+00
  0.00000000E+00  0.00000000E+00  1.00000000E+00  0.00000000E+00  0.00000000E+00
  0.00000000E+00  0.00000000E+00  1.00000000E+00  0.00000000E+00  0.00000000E+00
  0.00000000E+00  0.00000000E+00  1.00000000E+00  0.00000000E+00  0.00000000E+00
  0.00000000E+00  0.00000000E+00  1.00000000E+00  0.00000000E+00  0.00000000E+00
  0.00000000E+00  0.00000000E+00  0.00000000E+00  1.00000000E+00  1.00000000E+00
  0.00000000E+00  1.00000000E+00  0.00000000E+00  0.00000000E+00  0.00000000E+00
  0.00000000E+00  0.00000000E+00  0.00000000E+00  0.00000000E+00  0.00000000E+00
  0.00000000E+00  0.00000000E+00
MxBond                                     I                2
NBond                                      I   N=           5
           1           2           2           2           1
IBond                                      I   N=          10
           2           0           1           3           2           4
           3           5           4           0
RBond                                      R   N=          10
  1.00000000E+00  0.00000000E+00  1.00000000E+00  1.00000000E+00  1.00000000E+00
  1.00000000E+00  1.00000000E+00  2.00000000E+00  2.00000000E+00  0.00000000E+00
Virial Ratio                               R      2.002160375259821E+00
SCF Energy                                 R     -2.795045656180571E+02
MP2 Energy                                 R     -2.804464917511701E+02
Total Energy                               R     -2.804464917511701E+02
Post-SCF wavefunction norm                 R      1.582309488090342E+00
RMS Force                                  R      3.932319807651903E-03
RMS Density                                R      3.388335991829647E-09
NImag                                      I                1
Job Status                                 I                1
Nuclear derivative order                   I                2
External E-field                           R   N=          35
  0.00000000E+00  0.00000000E+00  0.00000000E+00  0.00000000E+00  0.00000000E+00
  0.00000000E+00  0.00000000E+00  0.00000000E+00  0.00000000E+00  0.00000000E+00
  0.00000000E+00  0.00000000E+00  0.00000000E+00  0.00000000E+00  0.00000000E+00
  0.00000000E+00  0.00000000E+00  0.00000000E+00  0.00000000E+00  0.00000000E+00
  0.00000000E+00  0.00000000E+00  0.00000000E+00  0.00000000E+00  0.00000000E+00
  0.00000000E+00  0.00000000E+00  0.00000000E+00  0.00000000E+00  0.00000000E+00
  0.00000000E+00  0.00000000E+00  0.00000000E+00  0.00000000E+00  0.00000000E+00
IOpCl                                      I                0
IROHF                                      I                0
Alpha Orbital Energies                     R   N=         207
 -2.06964686E+01 -2.06763913E+01 -2.06640023E+01 -1.58075691E+01 -1.62660795E+00
 -1.50009289E+00 -1.26441643E+00 -9.45783368E-01 -7.75528313E-01 -7.63287994E-01
 -7.17898963E-01 -6.77673181E-01 -6.18685840E-01 -5.91080690E-01 -4.88471450E-01
 -4.73590515E-01  2.87191027E-02  7.59518516E-02  8.65110569E-02  1.02059961E-01
  1.33654434E-01  1.34087570E-01  1.43417414E-01  1.53882516E-01  1.77530700E-01
  1.94196323E-01  1.99985674E-01  2.10187155E-01  2.19761097E-01  2.33946958E-01
  2.37807041E-01  2.66105649E-01  3.03169966E-01  3.03193376E-01  3.15437452E-01
  3.45858676E-01  3.51414944E-01  3.89514937E-01  4.20741645E-01  4.30585254E-01
  5.28900478E-01  5.30600921E-01  5.62239522E-01  5.83407332E-01  6.28330392E-01
  6.40278867E-01  6.75323391E-01  6.84311831E-01  7.05091459E-01  7.10399919E-01
  7.23767598E-01  7.27204309E-01  7.43643784E-01  7.90861428E-01  7.93700572E-01
  8.10464763E-01  8.11654867E-01  8.32332917E-01  8.70650350E-01  9.08404144E-01
  9.20706944E-01  9.28750764E-01  9.53481262E-01  9.82135867E-01  9.83364768E-01
  1.01381022E+00  1.05358641E+00  1.05643081E+00  1.08553280E+00  1.12017560E+00
  1.14468816E+00  1.19121836E+00  1.22163911E+00  1.23359148E+00  1.34264230E+00
  1.35663385E+00  1.38238741E+00  1.45850784E+00  1.48796641E+00  1.50734401E+00
  1.54015559E+00  1.57071317E+00  1.58627466E+00  1.61495607E+00  1.66619537E+00
  1.67041659E+00  1.70633502E+00  1.79335401E+00  1.83311229E+00  1.84043747E+00
  1.87761410E+00  1.91415864E+00  1.95636037E+00  1.99882819E+00  2.00829077E+00
  2.08853377E+00  2.12439465E+00  2.13664694E+00  2.14538399E+00  2.23089051E+00
  2.26228407E+00  2.26415679E+00  2.29570919E+00  2.31530057E+00  2.35237886E+00
  2.38582830E+00  2.42913405E+00  2.43619879E+00  2.45907250E+00  2.46701779E+00
  2.48192000E+00  2.50640621E+00  2.58661281E+00  2.59939289E+00  2.62733417E+00
  2.62890109E+00  2.63211858E+00  2.67187743E+00  2.76309512E+00  2.83886584E+00
  2.86999109E+00  2.89217561E+00  2.89639856E+00  2.95042761E+00  2.95967449E+00
  3.03812286E+00  3.08046964E+00  3.13267508E+00  3.19952239E+00  3.23562584E+00
  3.32258704E+00  3.35165538E+00  3.52209624E+00  3.65593166E+00  3.85359317E+00
  3.85403224E+00  4.14882007E+00  4.15676386E+00  4.18947651E+00  4.27258529E+00
  4.35144427E+00  4.39480139E+00  4.46163522E+00  4.52326815E+00  4.67378554E+00
  4.71456953E+00  4.81121024E+00  4.82445007E+00  4.85182027E+00  4.89893077E+00
  5.03420893E+00  5.08743870E+00  5.11432650E+00  5.14395047E+00  5.18813847E+00
  5.25147619E+00  5.28344621E+00  5.31555915E+00  5.33380270E+00  5.36913326E+00
  5.61257542E+00  5.67963383E+00  5.78815926E+00  5.82705907E+00  5.96438406E+00
  6.18298984E+00  6.30929973E+00  6.35099817E+00  6.40337324E+00  6.50140346E+00
  6.51255804E+00  6.61505581E+00  6.66624951E+00  6.71266908E+00  6.75491664E+00
  6.76276506E+00  6.84129526E+00  6.90989877E+00  7.02257331E+00  7.05427095E+00
  7.06262821E+00  7.08978742E+00  7.13465767E+00  7.15917351E+00  7.18311077E+00
  7.23937206E+00  7.23954556E+00  7.30182399E+00  7.33101954E+00  7.35595119E+00
  7.40927819E+00  7.44645450E+00  7.49354478E+00  7.61416896E+00  7.63220340E+00
  7.65476638E+00  7.68784874E+00  7.80191988E+00  7.89724907E+00  8.13320045E+00
  8.32860850E+00  8.40881178E+00  8.56068589E+00  1.34909492E+01  1.45826089E+01
  1.51915921E+01  1.62203694E+01
Alpha MO coefficients                      R   N=       42849
  8.97459938E-05 -5.89400784E-04 -6.72596778E-04 -3.91363197E-06 -1.94088301E-05
 -2.70685300E-05  0.00000000E+00 -3.55427886E-05  4.42415825E-05  0.00000000E+00
  8.39836952E-05  1.88529734E-05  0.00000000E+00  3.07256788E-05  0.00000000E+00
  0.00000000E+00 -5.12683154E-05  1.96547828E-05 -6.15015718E-06  0.00000000E+00
  0.00000000E+00 -1.36550280E-04  1.19146959E-04  4.36145136E-03 -2.85352630E-04
  6.24648222E-06  1.57870256E-03  1.81586417E-03  1.06227436E-04  6.67847358E-06
  0.00000000E+00 -6.20199941E-04 -3.58908607E-05  0.00000000E+00 -1.16206539E-03
  7.64277891E-04  0.00000000E+00 -4.08874102E-04  6.03502506E-05  0.00000000E+00
  2.89841577E-05  0.00000000E+00  0.00000000E+00 -5.33162753E-05  7.32505970E-06
 -3.77631208E-04  0.00000000E+00  0.00000000E+00  7.39634376E-04 -4.69615040E-05
 -4.44201112E-04  0.00000000E+00  0.00000000E+00  2.65621326E-04 -2.95470182E-05
  0.00000000E+00  7.97443914E-05  1.22895767E-05  0.00000000E+00  0.00000000E+00
 -1.09254684E-04 -2.03133543E-06  0.00000000E+00  2.54784886E-04 -2.87260772E-05
  0.00000000E+00  0.00000000E+00 -3.44848550E-04  5.97894150E-05  9.76893186E-01
 -9.23948573E-03  4.33641814E-02  1.76683658E-03 -1.04038585E-03  1.47116319E-03
 -1.43219762E-03  0.00000000E+00 -1.39550017E-03  1.49995399E-03  0.00000000E+00
  3.43371891E-05 -1.06883004E-03  0.00000000E+00 -1.33539479E-04  7.66112860E-06
  0.00000000E+00  3.70258120E-05  0.00000000E+00  0.00000000E+00 -4.41104760E-05
  2.42741126E-05  7.77221478E-04  0.00000000E+00  0.00000000E+00 -1.84199543E-04
 -4.10639663E-04 -3.35132647E-04  0.00000000E+00  0.00000000E+00 -3.12774464E-04
 -3.80531135E-04  0.00000000E+00  4.43744801E-05 -5.22846286E-05  0.00000000E+00
  0.00000000E+00 -4.07460191E-05 -1.70252990E-05  0.00000000E+00  2.84249970E-05
  7.01277875E-06  0.00000000E+00  0.00000000E+00 -3.14070431E-04 -1.58615166E-04
  5.29505223E-05  1.34260382E-04 -2.90756897E-04 -6.14410149E-04 -1.09305210E-04
 -2.72645578E-05 -1.01071465E-04  0.00000000E+00  2.94166971E-04  8.76017996E-04
  0.00000000E+00 -7.92989419E-04 -2.98741021E-04  0.00000000E+00 -1.22665345E-04
 -1.08670392E-05  0.00000000E+00 -3.22906100E-05  0.00000000E+00  0.00000000E+00
 -5.55354231E-05  2.33713508E-05 -3.62211962E-04  0.00000000E+00  0.00000000E+00
 -8.80516831E-04  1.36302692E-04 -4.88825289E-05  0.00000000E+00  0.00000000E+00
  7.88007255E-05 -1.34164290E-04  0.00000000E+00 -2.17574068E-05 -1.23785678E-04
  0.00000000E+00  0.00000000E+00 -6.95911702E-05 -1.36880297E-04  0.00000000E+00
 -7.15739976E-06 -1.65720333E-04  0.00000000E+00  0.00000000E+00  1.23109836E-05
 -4.01528110E-04 -8.66887924E-04  9.48493563E-05 -4.49883256E-05 -1.82293064E-04
  1.84912411E-04 -5.33547083E-06 -2.27114561E-05  0.00000000E+00  7.10470469E-05
  1.42529606E-04  0.00000000E+00  2.80252189E-04  1.39920010E-04  0.00000000E+00
  1.41672372E-04  2.46924689E-05  0.00000000E+00 -2.30474802E-06  0.00000000E+00
  0.00000000E+00 -1.83484280E-05  2.44904124E-06 -4.14371271E-06  0.00000000E+00
  0.00000000E+00  9.02148257E-05  6.60612573E-05 -1.08021575E-04  0.00000000E+00
  0.00000000E+00  1.79869401E-04  1.38328803E-04  0.00000000E+00  1.70017187E-05
 -1.07907082E-06  0.00000000E+00  0.00000000E+00  2.31070431E-07 -1.50558170E-05
  0.00000000E+00 -3.98839061E-05  4.26280300E-05  0.00000000E+00  0.00000000E+00
  8.42112559E-05  8.20877241E-05  4.02862354E-05 -1.00313698E-03 -4.82448727E-04
 -7.84585230E-06 -2.08886415E-05  1.51781805E-05  0.00000000E+00 -5.31501128E-06
  2.72187294E-04  0.00000000E+00 -4.59010065E-05  1.32239460E-04  0.00000000E+00
  2.61193557E-05  0.00000000E+00  0.00000000E+00  1.13307464E-05  1.19086498E-05
 -3.20852203E-05  0.00000000E+00  0.00000000E+00  1.58034722E-05  4.00945203E-05
  1.96456670E-04  8.31204928E-05 -2.46012771E-05  7.97554817E-04  6.72082989E-04
  1.07524267E-05  2.76491579E-06  0.00000000E+00 -7.85128234E-05  1.14106520E-05
  0.00000000E+00  3.28846223E-04  9.50785234E-04  0.00000000E+00  3.48587584E-07
  8.68456092E-05  0.00000000E+00 -2.33002848E-06  0.00000000E+00  0.00000000E+00
 -2.86695601E-07 -4.85263728E-06 -3.61031630E-05  0.00000000E+00  0.00000000E+00
 -1.46332791E-05  7.85706044E-05 -2.31524328E-05  0.00000000E+00  0.00000000E+00
 -2.72390986E-04 -1.85883134E-04  0.00000000E+00  9.34147286E-06  6.51488243E-06
  0.00000000E+00  0.00000000E+00  2.02417726E-06 -1.89915097E-05  0.00000000E+00
 -4.04544666E-05 -4.09774214E-05  0.00000000E+00  0.00000000E+00 -7.95355194E-05
  2.86970552E-05  9.02990086E-04  5.51665854E-05  1.69171541E-05 -2.73380690E-05
 -4.34429766E-04  1.78720555E-06  1.80437410E-05  0.00000000E+00 -5.25018904E-05
 -6.47201479E-05  0.00000000E+00  2.02618010E-04 -3.24572085E-04  0.00000000E+00
 -2.04435980E-04 -8.73013545E-05  0.00000000E+00 -9.42910920E-06  0.00000000E+00
  0.00000000E+00  2.52835586E-05  2.20966907E-05  3.94945838E-06  0.00000000E+00
  0.00000000E+00 -1.40878690E-04 -6.19736480E-05 -9.52388346E-06  0.00000000E+00
  0.00000000E+00 -2.75291264E-04 -2.29776380E-04  0.00000000E+00 -9.05685013E-08
 -2.60337978E-06  0.00000000E+00  0.00000000E+00 -2.58807074E-06 -7.49578276E-06
  0.00000000E+00 -4.22581173E-05  1.09801775E-05  0.00000000E+00  0.00000000E+00
 -7.55450138E-05  1.91320818E-04  2.56154260E-04  1.45909498E-03 -7.14837955E-05
 -1.66672791E-03  3.48118434E-04 -1.41831934E-04  2.29078832E-06  0.00000000E+00
 -2.12783759E-03 -4.21820396E-04  0.00000000E+00  1.06892373E-03  7.39535891E-04
  0.00000000E+00 -1.66220715E-04  5.19786818E-05  0.00000000E+00 -1.23066742E-04
  0.00000000E+00  0.00000000E+00  2.46863652E-04  9.36384264E-05 -4.36271825E-04
  0.00000000E+00  0.00000000E+00  9.06994141E-04 -1.06961419E-04  2.08337347E-05
  0.00000000E+00  0.00000000E+00 -3.45048590E-04 -1.37607847E-04  0.00000000E+00
  7.45725126E-07  1.63777720E-05  0.00000000E+00  0.00000000E+00  2.18387251E-05
  1.36248312E-05  0.00000000E+00  1.58556739E-04 -7.71589748E-05  0.00000000E+00
  0.00000000E+00 -2.27488289E-04  6.11879872E-05  9.76644601E-01 -9.84089436E-03
  4.35867467E-02  4.54373347E-03 -4.36491018E-04  2.15597479E-03  4.78242557E-04
  0.00000000E+00 -2.38856334E-03 -6.05145714E-04  0.00000000E+00  1.13162450E-03
 -2.24298006E-05  0.00000000E+00  5.05050693E-06 -4.69125388E-05  0.00000000E+00
 -2.32638987E-04  0.00000000E+00  0.00000000E+00  1.00923094E-04  3.30637303E-05
  3.96906469E-04  0.00000000E+00  0.00000000E+00 -8.44429714E-04 -4.22916335E-04
 -1.47744881E-04  0.00000000E+00  0.00000000E+00  2.45462663E-04  4.84301134E-06
  0.00000000E+00  5.27736501E-05  1.77072166E-05  0.00000000E+00  0.00000000E+00
 -2.16339841E-05 -1.28374033E-05  0.00000000E+00  1.42731108E-04  9.27693596E-06
  0.00000000E+00  0.00000000E+00 -1.93798864E-04 -1.44185797E-04  4.74318609E-04
  2.11402196E-03  1.57456742E-04  1.67474282E-05 -4.13407431E-05 -2.48277432E-04
  0.00000000E+00  1.02547262E-04 -1.29416289E-03  0.00000000E+00  3.12333359E-04
 -3.55258936E-04  0.00000000E+00 -4.05791315E-06  0.00000000E+00  0.00000000E+00
  7.49042321E-05  1.51132304E-05 -1.61208692E-04  0.00000000E+00  0.00000000E+00
 -5.37866914E-04 -1.86008116E-05  9.76830861E-01 -9.16884464E-03  4.34511372E-02
  1.27995843E-04 -1.19831266E-03 -1.55956014E-03  1.45429723E-03  0.00000000E+00
  1.57414854E-03 -1.30091647E-03  0.00000000E+00 -5.82150983E-04 -9.08364328E-04
  0.00000000E+00  5.85073681E-05 -4.24154388E-05  0.00000000E+00  2.96944475E-05
  0.00000000E+00  0.00000000E+00 -1.19079130E-04 -1.02884568E-06  7.62395321E-04
  0.00000000E+00  0.00000000E+00 -2.06023440E-04 -2.34929546E-04 -2.58875161E-04
  0.00000000E+00  0.00000000E+00  1.73734155E-04  1.27150109E-04  0.00000000E+00
 -6.40907947E-05  1.64703646E-06  0.00000000E+00  0.00000000E+00  1.88190409E-05