 Entering Gaussian System, Link 0=g16
 Input=hoono_d2_3p105779.gjf
 Output=hoono_d2_3p105779.log
 Initial command:
 /sw/contrib/gaussian/g16/B01/g16/l1.exe "/scr/Gau-9824.inp" -scrdir="/scr/"
 Entering Link 1 = /sw/contrib/gaussian/g16/B01/g16/l1.exe PID=      9825.
  
 Copyright (c) 1988-2017, Gaussian, Inc.  All Rights Reserved.
  
 This is part of the Gaussian(R) 16 program.  It is based on
 the Gaussian(R) 09 system (copyright 2009, Gaussian, Inc.),
 the Gaussian(R) 03 system (copyright 2003, Gaussian, Inc.),
 the Gaussian(R) 98 system (copyright 1998, Gaussian, Inc.),
 the Gaussian(R) 94 system (copyright 1995, Gaussian, Inc.),
 the Gaussian 92(TM) system (copyright 1992, Gaussian, Inc.),
 the Gaussian 90(TM) system (copyright 1990, Gaussian, Inc.),
 the Gaussian 88(TM) system (copyright 1988, Gaussian, Inc.),
 the Gaussian 86(TM) system (copyright 1986, Carnegie Mellon
 University), and the Gaussian 82(TM) system (copyright 1983,
 Carnegie Mellon University). Gaussian is a federally registered
 trademark of Gaussian, Inc.
  
 This software contains proprietary and confidential information,
 including trade secrets, belonging to Gaussian, Inc.
  
 This software is provided under written license and may be
 used, copied, transmitted, or stored only in accord with that
 written license.
  
 The following legend is applicable only to US Government
 contracts under FAR:
  
                    RESTRICTED RIGHTS LEGEND
  
 Use, reproduction and disclosure by the US Government is
 subject to restrictions as set forth in subparagraphs (a)
 and (c) of the Commercial Computer Software - Restricted
 Rights clause in FAR 52.227-19.
  
 Gaussian, Inc.
 340 Quinnipiac St., Bldg. 40, Wallingford CT 06492
  
  
 ---------------------------------------------------------------
 Warning -- This program may not be used in any manner that
 competes with the business of Gaussian, Inc. or will provide
 assistance to any competitor of Gaussian, Inc.  The licensee
 of this program is prohibited from giving any competitor of
 Gaussian, Inc. access to this program.  By using this program,
 the user acknowledges that Gaussian, Inc. is engaged in the
 business of creating and licensing software in the field of
 computational chemistry and represents and warrants to the
 licensee that it is not a competitor of Gaussian, Inc. and that
 it will not use this program in any manner prohibited above.
 ---------------------------------------------------------------
  

 Cite this work as:
 Gaussian 16, Revision B.01,
 M. J. Frisch, G. W. Trucks, H. B. Schlegel, G. E. Scuseria, 
 M. A. Robb, J. R. Cheeseman, G. Scalmani, V. Barone, 
 G. A. Petersson, H. Nakatsuji, X. Li, M. Caricato, A. V. Marenich, 
 J. Bloino, B. G. Janesko, R. Gomperts, B. Mennucci, H. P. Hratchian, 
 J. V. Ortiz, A. F. Izmaylov, J. L. Sonnenberg, D. Williams-Young, 
 F. Ding, F. Lipparini, F. Egidi, J. Goings, B. Peng, A. Petrone, 
 T. Henderson, D. Ranasinghe, V. G. Zakrzewski, J. Gao, N. Rega, 
 G. Zheng, W. Liang, M. Hada, M. Ehara, K. Toyota, R. Fukuda, 
 J. Hasegawa, M. Ishida, T. Nakajima, Y. Honda, O. Kitao, H. Nakai, 
 T. Vreven, K. Throssell, J. A. Montgomery, Jr., J. E. Peralta, 
 F. Ogliaro, M. J. Bearpark, J. J. Heyd, E. N. Brothers, K. N. Kudin, 
 V. N. Staroverov, T. A. Keith, R. Kobayashi, J. Normand, 
 K. Raghavachari, A. P. Rendell, J. C. Burant, S. S. Iyengar, 
 J. Tomasi, M. Cossi, J. M. Millam, M. Klene, C. Adamo, R. Cammi, 
 J. W. Ochterski, R. L. Martin, K. Morokuma, O. Farkas, 
 J. B. Foresman, and D. J. Fox, Gaussian, Inc., Wallingford CT, 2016.
 
 ******************************************
 Gaussian 16:  ES64L-G16RevB.01 20-Dec-2017
                 6-Mar-2022 
 ******************************************
 %nproc=28
 Will use up to   28 processors via shared memory.
 %mem=120GB
 %chk=hoono_d2_3p105779.chk
 ---------------------------------------
 #p freq mp2/aug-cc-pvtz density=current
 ---------------------------------------
 1/10=4,30=1,38=1/1,3;
 2/12=2,17=6,18=5,40=1/2;
 3/5=16,6=1,7=10,11=9,25=1,30=1,71=2,140=1/1,2,3;
 4//1;
 5/5=2,38=5,98=1/2;
 8/6=3,8=1,10=1,19=11,30=-1/1;
 9/15=3,16=-3/6;
 11/6=1,8=1,15=11,17=12,24=-1,27=1,28=-2,29=300,32=6,42=3/1,2,10;
 10/6=2,21=1/2;
 8/6=4,8=1,10=1,19=11,30=-1/11,4;
 10/5=1,20=4/2;
 11/12=2,14=11,16=1,17=2,28=-2,42=3,76=2/2,10,12;
 6/7=2,8=2,9=2,10=2,22=-1/1;
 7/8=1,10=1,12=2,25=1,44=2/1,2,3,16;
 1/10=4,30=1/3;
 99//99;
 Leave Link    1 at Sun Mar  6 19:58:09 2022, MaxMem= 16106127360 cpu:               1.6 elap:               0.1
 (Enter /sw/contrib/gaussian/g16/B01/g16/l101.exe)
 -----
 title
 -----
 Symbolic Z-matrix:
 Charge =  0 Multiplicity = 1
 H
 O                    1    r1
 O                    2    r2       1    a1
 N                    3    r3       2    a2       1    d1       0
 O                    4    r4       3    a3       2    d2       0
       Variables:
  r1                    0.98538                  
  r2                    1.42674                  
  r3                    1.38111                  
  r4                    1.19479                  
  a1                  100.63551                  
  a2                  113.13777                  
  a3                  114.33392                  
  d1                    0.                       
  d2                    3.10578                  
 
 ITRead=  0  0  0  0  0
 MicOpt= -1 -1 -1 -1 -1
 NAtoms=      5 NQM=        5 NQMF=       0 NMMI=      0 NMMIF=      0
                NMic=       0 NMicF=      0.
                    Isotopes and Nuclear Properties:
 (Nuclear quadrupole moments (NQMom) in fm**2, nuclear magnetic moments (NMagM)
  in nuclear magnetons)

  Atom         1           2           3           4           5
 IAtWgt=           1          16          16          14          16
 AtmWgt=   1.0078250  15.9949146  15.9949146  14.0030740  15.9949146
 NucSpn=           1           0           0           2           0
 AtZEff=  -0.0000000  -0.0000000  -0.0000000  -0.0000000  -0.0000000
 NQMom=    0.0000000   0.0000000   0.0000000   2.0440000   0.0000000
 NMagM=    2.7928460   0.0000000   0.0000000   0.4037610   0.0000000
 AtZNuc=   1.0000000   8.0000000   8.0000000   7.0000000   8.0000000
 Leave Link  101 at Sun Mar  6 19:58:09 2022, MaxMem= 16106127360 cpu:               2.6 elap:               0.1
 (Enter /sw/contrib/gaussian/g16/B01/g16/l103.exe)

 GradGradGradGradGradGradGradGradGradGradGradGradGradGradGradGradGradGrad
 Berny optimization.
 Initialization pass.
                       ----------------------------
                       !    Initial Parameters    !
                       ! (Angstroms and Degrees)  !
 ----------------------                            ----------------------
 !      Name          Value   Derivative information (Atomic Units)     !
 ------------------------------------------------------------------------
 !       r1          0.9854   calculate D2E/DX2 analytically            !
 !       r2          1.4267   calculate D2E/DX2 analytically            !
 !       r3          1.3811   calculate D2E/DX2 analytically            !
 !       r4          1.1948   calculate D2E/DX2 analytically            !
 !       a1        100.6355   calculate D2E/DX2 analytically            !
 !       a2        113.1378   calculate D2E/DX2 analytically            !
 !       a3        114.3339   calculate D2E/DX2 analytically            !
 !       d1          0.0      calculate D2E/DX2 analytically            !
 !       d2          3.1058   calculate D2E/DX2 analytically            !
 ------------------------------------------------------------------------
 Trust Radius=3.00D-01 FncErr=1.00D-07 GrdErr=1.00D-07 EigMax=2.50D+02 EigMin=1.00D-04
 Number of steps in this run=      2 maximum allowed number of steps=      2.
 GradGradGradGradGradGradGradGradGradGradGradGradGradGradGradGradGradGrad

 Leave Link  103 at Sun Mar  6 19:58:09 2022, MaxMem= 16106127360 cpu:               1.1 elap:               0.1
 (Enter /sw/contrib/gaussian/g16/B01/g16/l202.exe)
                          Input orientation:                          
 ---------------------------------------------------------------------
 Center     Atomic      Atomic             Coordinates (Angstroms)
 Number     Number       Type             X           Y           Z
 ---------------------------------------------------------------------
      1          1           0        0.000000    0.000000    0.000000
      2          8           0        0.000000    0.000000    0.985377
      3          8           0        1.402227    0.000000    1.248696
      4          7           0        2.169996    0.000000    0.100659
      5          8           0        1.540080    0.058982   -0.912873
 ---------------------------------------------------------------------
                    Distance matrix (angstroms):
                    1          2          3          4          5
     1  H    0.000000
     2  O    0.985377   0.000000
     3  O    1.877627   1.426737   0.000000
     4  N    2.172329   2.343418   1.381108   0.000000
     5  O    1.791274   2.445134   2.166763   1.194788   0.000000
 Stoichiometry    HNO3
 Framework group  C1[X(HNO3)]
 Deg. of freedom     9
 Full point group                 C1      NOp   1
 Largest Abelian subgroup         C1      NOp   1
 Largest concise Abelian subgroup C1      NOp   1
                         Standard orientation:                         
 ---------------------------------------------------------------------
 Center     Atomic      Atomic             Coordinates (Angstroms)
 Number     Number       Type             X           Y           Z
 ---------------------------------------------------------------------
      1          1           0       -0.540517   -1.138409    0.030824
      2          8           0       -1.277106   -0.484466    0.003204
      3          8           0       -0.542854    0.738742   -0.011370
      4          7           0        0.825131    0.550918    0.016870
      5          8           0        1.165534   -0.594027   -0.010448
 ---------------------------------------------------------------------
 Rotational constants (GHZ):          21.3580794           8.1026365           5.8753615
 Leave Link  202 at Sun Mar  6 19:58:10 2022, MaxMem= 16106127360 cpu:               3.2 elap:               0.2
 (Enter /sw/contrib/gaussian/g16/B01/g16/l301.exe)
 Standard basis: Aug-CC-pVTZ (5D, 7F)
 Ernie: Thresh=  0.10000D-02 Tol=  0.10000D-05 Strict=F.
 Ernie:  12 primitive shells out of 131 were deleted.
 There are   245 symmetry adapted cartesian basis functions of A   symmetry.
 There are   207 symmetry adapted basis functions of A   symmetry.
   207 basis functions,   315 primitive gaussians,   245 cartesian basis functions
    16 alpha electrons       16 beta electrons
       nuclear repulsion energy       122.7432680204 Hartrees.
 IExCor=    0 DFT=F Ex=HF Corr=None ExCW=0 ScaHFX=  1.000000
 ScaDFX=  1.000000  1.000000  1.000000  1.000000 ScalE2=  1.000000  1.000000
 IRadAn=      5 IRanWt=     -1 IRanGd=            0 ICorTp=0 IEmpDi=  4
 NAtoms=    5 NActive=    5 NUniq=    5 SFac= 1.00D+00 NAtFMM=   60 NAOKFM=F Big=F
 Integral buffers will be    131072 words long.
 Raffenetti 1 integral format.
 Two-electron integral symmetry is turned on.
 Leave Link  301 at Sun Mar  6 19:58:10 2022, MaxMem= 16106127360 cpu:               1.4 elap:               0.1
 (Enter /sw/contrib/gaussian/g16/B01/g16/l302.exe)
 NPDir=0 NMtPBC=     1 NCelOv=     1 NCel=       1 NClECP=     1 NCelD=      1
         NCelK=      1 NCelE2=     1 NClLst=     1 CellRange=     0.0.
 One-electron integrals computed using PRISM.
 One-electron integral symmetry used in STVInt
 NBasis=   207 RedAO= T EigKep=  1.31D-04  NBF=   207
 NBsUse=   207 1.00D-06 EigRej= -1.00D+00 NBFU=   207
 Leave Link  302 at Sun Mar  6 19:58:10 2022, MaxMem= 16106127360 cpu:               4.6 elap:               0.2
 (Enter /sw/contrib/gaussian/g16/B01/g16/l303.exe)
 DipDrv:  MaxL=1.
 Leave Link  303 at Sun Mar  6 19:58:10 2022, MaxMem= 16106127360 cpu:               1.6 elap:               0.1
 (Enter /sw/contrib/gaussian/g16/B01/g16/l401.exe)
 ExpMin= 2.53D-02 ExpMax= 1.53D+04 ExpMxC= 5.22D+02 IAcc=3 IRadAn=         5 AccDes= 0.00D+00
 Harris functional with IExCor=  205 and IRadAn=       5 diagonalized for initial guess.
 HarFok:  IExCor=  205 AccDes= 0.00D+00 IRadAn=         5 IDoV= 1 UseB2=F ITyADJ=14
 ICtDFT=  3500011 ScaDFX=  1.000000  1.000000  1.000000  1.000000
 FoFCou: FMM=F IPFlag=           0 FMFlag=      100000 FMFlg1=           0
         NFxFlg=           0 DoJE=T BraDBF=F KetDBF=T FulRan=T
         wScrn=  0.000000 ICntrl=       500 IOpCl=  0 I1Cent=   200000004 NGrid=           0
         NMat0=    1 NMatS0=      1 NMatT0=    0 NMatD0=    1 NMtDS0=    0 NMtDT0=    0
 Petite list used in FoFCou.
 Harris En= -279.644831780101    
 JPrj=0 DoOrth=F DoCkMO=F.
 Leave Link  401 at Sun Mar  6 19:58:10 2022, MaxMem= 16106127360 cpu:               6.6 elap:               0.3
 (Enter /sw/contrib/gaussian/g16/B01/g16/l502.exe)
 Keep R1 ints in memory in canonical form, NReq=245623665.
 FoFCou: FMM=F IPFlag=           0 FMFlag=           0 FMFlg1=           0
         NFxFlg=           0 DoJE=F BraDBF=F KetDBF=F FulRan=T
         wScrn=  0.000000 ICntrl=       600 IOpCl=  0 I1Cent=           0 NGrid=           0
         NMat0=    1 NMatS0=  21528 NMatT0=    0 NMatD0=    1 NMtDS0=    0 NMtDT0=    0
 Symmetry not used in FoFCou.
 Two-electron integral symmetry not used.
 Closed shell SCF:
 Using DIIS extrapolation, IDIIS=  1040.
 NGot= 16106127360 LenX= 15874260251 LenY= 15874199785
 Requested convergence on RMS density matrix=1.00D-08 within 128 cycles.
 Requested convergence on MAX density matrix=1.00D-06.
 Requested convergence on             energy=1.00D-06.
 No special actions if energy rises.

 Cycle   1  Pass 1  IDiag  1:
 E= -279.364087872319    
 DIIS: error= 2.67D-02 at cycle   1 NSaved=   1.
 NSaved= 1 IEnMin= 1 EnMin= -279.364087872319     IErMin= 1 ErrMin= 2.67D-02
 ErrMax= 2.67D-02  0.00D+00 EMaxC= 1.00D-01 BMatC= 4.51D-01 BMatP= 4.51D-01
 IDIUse=3 WtCom= 7.33D-01 WtEn= 2.67D-01
 Coeff-Com:  0.100D+01
 Coeff-En:   0.100D+01
 Coeff:      0.100D+01
 Gap=     0.519 Goal=   None    Shift=    0.000
 GapD=    0.519 DampG=2.000 DampE=0.500 DampFc=1.0000 IDamp=-1.
 RMSDP=1.68D-03 MaxDP=8.78D-02              OVMax= 1.23D-01

 Cycle   2  Pass 1  IDiag  1:
 E= -279.446150051396     Delta-E=       -0.082062179077 Rises=F Damp=F
 DIIS: error= 1.89D-02 at cycle   2 NSaved=   2.
 NSaved= 2 IEnMin= 2 EnMin= -279.446150051396     IErMin= 2 ErrMin= 1.89D-02
 ErrMax= 1.89D-02  0.00D+00 EMaxC= 1.00D-01 BMatC= 8.59D-02 BMatP= 4.51D-01
 IDIUse=3 WtCom= 8.11D-01 WtEn= 1.89D-01
 Coeff-Com:  0.219D+00 0.781D+00
 Coeff-En:   0.768D-01 0.923D+00
 Coeff:      0.192D+00 0.808D+00
 Gap=     0.586 Goal=   None    Shift=    0.000
 RMSDP=9.66D-04 MaxDP=3.67D-02 DE=-8.21D-02 OVMax= 9.12D-02

 Cycle   3  Pass 1  IDiag  1:
 E= -279.483984455185     Delta-E=       -0.037834403789 Rises=F Damp=F
 DIIS: error= 8.75D-03 at cycle   3 NSaved=   3.
 NSaved= 3 IEnMin= 3 EnMin= -279.483984455185     IErMin= 3 ErrMin= 8.75D-03
 ErrMax= 8.75D-03  0.00D+00 EMaxC= 1.00D-01 BMatC= 3.08D-02 BMatP= 8.59D-02
 IDIUse=3 WtCom= 9.13D-01 WtEn= 8.75D-02
 Coeff-Com: -0.347D-01 0.364D+00 0.671D+00
 Coeff-En:   0.000D+00 0.217D+00 0.783D+00
 Coeff:     -0.317D-01 0.351D+00 0.681D+00
 Gap=     0.541 Goal=   None    Shift=    0.000
 RMSDP=4.07D-04 MaxDP=1.57D-02 DE=-3.78D-02 OVMax= 3.80D-02

 Cycle   4  Pass 1  IDiag  1:
 E= -279.505070320535     Delta-E=       -0.021085865350 Rises=F Damp=F
 DIIS: error= 1.60D-03 at cycle   4 NSaved=   4.
 NSaved= 4 IEnMin= 4 EnMin= -279.505070320535     IErMin= 4 ErrMin= 1.60D-03
 ErrMax= 1.60D-03  0.00D+00 EMaxC= 1.00D-01 BMatC= 5.60D-04 BMatP= 3.08D-02
 IDIUse=3 WtCom= 9.84D-01 WtEn= 1.60D-02
 Coeff-Com: -0.119D-01 0.485D-01 0.149D+00 0.814D+00
 Coeff-En:   0.000D+00 0.000D+00 0.000D+00 0.100D+01
 Coeff:     -0.117D-01 0.477D-01 0.147D+00 0.817D+00
 Gap=     0.528 Goal=   None    Shift=    0.000
 RMSDP=9.85D-05 MaxDP=2.40D-03 DE=-2.11D-02 OVMax= 1.16D-02

 Cycle   5  Pass 1  IDiag  1:
 E= -279.505857769502     Delta-E=       -0.000787448966 Rises=F Damp=F
 DIIS: error= 1.08D-03 at cycle   5 NSaved=   5.
 NSaved= 5 IEnMin= 5 EnMin= -279.505857769502     IErMin= 5 ErrMin= 1.08D-03
 ErrMax= 1.08D-03  0.00D+00 EMaxC= 1.00D-01 BMatC= 1.02D-04 BMatP= 5.60D-04
 IDIUse=3 WtCom= 9.89D-01 WtEn= 1.08D-02
 Coeff-Com:  0.538D-02-0.658D-01-0.111D+00 0.595D-01 0.111D+01
 Coeff-En:   0.000D+00 0.000D+00 0.000D+00 0.000D+00 0.100D+01
 Coeff:      0.532D-02-0.651D-01-0.110D+00 0.588D-01 0.111D+01
 Gap=     0.532 Goal=   None    Shift=    0.000
 RMSDP=7.98D-05 MaxDP=2.12D-03 DE=-7.87D-04 OVMax= 1.28D-02

 Cycle   6  Pass 1  IDiag  1:
 E= -279.506219843482     Delta-E=       -0.000362073980 Rises=F Damp=F
 DIIS: error= 3.29D-04 at cycle   6 NSaved=   6.
 NSaved= 6 IEnMin= 6 EnMin= -279.506219843482     IErMin= 6 ErrMin= 3.29D-04
 ErrMax= 3.29D-04  0.00D+00 EMaxC= 1.00D-01 BMatC= 2.40D-05 BMatP= 1.02D-04
 IDIUse=3 WtCom= 9.97D-01 WtEn= 3.29D-03
 Coeff-Com:  0.188D-02-0.746D-02-0.168D-01-0.184D+00 0.137D-01 0.119D+01
 Coeff-En:   0.000D+00 0.000D+00 0.000D+00 0.000D+00 0.000D+00 0.100D+01
 Coeff:      0.188D-02-0.744D-02-0.168D-01-0.183D+00 0.136D-01 0.119D+01
 Gap=     0.532 Goal=   None    Shift=    0.000
 RMSDP=4.66D-05 MaxDP=1.07D-03 DE=-3.62D-04 OVMax= 6.10D-03

 Cycle   7  Pass 1  IDiag  1:
 E= -279.506305600135     Delta-E=       -0.000085756654 Rises=F Damp=F
 DIIS: error= 1.07D-04 at cycle   7 NSaved=   7.
 NSaved= 7 IEnMin= 7 EnMin= -279.506305600135     IErMin= 7 ErrMin= 1.07D-04
 ErrMax= 1.07D-04  0.00D+00 EMaxC= 1.00D-01 BMatC= 3.57D-06 BMatP= 2.40D-05
 IDIUse=3 WtCom= 9.99D-01 WtEn= 1.07D-03
 Coeff-Com: -0.109D-02 0.114D-01 0.249D-01 0.164D-01-0.181D+00-0.149D+00
 Coeff-Com:  0.128D+01
 Coeff-En:   0.000D+00 0.000D+00 0.000D+00 0.000D+00 0.000D+00 0.000D+00
 Coeff-En:   0.100D+01
 Coeff:     -0.109D-02 0.114D-01 0.249D-01 0.164D-01-0.181D+00-0.149D+00
 Coeff:      0.128D+01
 Gap=     0.532 Goal=   None    Shift=    0.000
 RMSDP=1.75D-05 MaxDP=5.10D-04 DE=-8.58D-05 OVMax= 2.33D-03

 Cycle   8  Pass 1  IDiag  1:
 E= -279.506317588485     Delta-E=       -0.000011988350 Rises=F Damp=F
 DIIS: error= 4.53D-05 at cycle   8 NSaved=   8.
 NSaved= 8 IEnMin= 8 EnMin= -279.506317588485     IErMin= 8 ErrMin= 4.53D-05
 ErrMax= 4.53D-05  0.00D+00 EMaxC= 1.00D-01 BMatC= 6.01D-07 BMatP= 3.57D-06
 IDIUse=1 WtCom= 1.00D+00 WtEn= 0.00D+00
 Coeff-Com: -0.561D-03 0.415D-02 0.959D-02 0.251D-01-0.573D-01-0.193D+00
 Coeff-Com:  0.354D+00 0.858D+00
 Coeff:     -0.561D-03 0.415D-02 0.959D-02 0.251D-01-0.573D-01-0.193D+00
 Coeff:      0.354D+00 0.858D+00
 Gap=     0.532 Goal=   None    Shift=    0.000
 RMSDP=5.45D-06 MaxDP=1.49D-04 DE=-1.20D-05 OVMax= 6.52D-04

 Cycle   9  Pass 1  IDiag  1:
 E= -279.506318973573     Delta-E=       -0.000001385088 Rises=F Damp=F
 DIIS: error= 2.04D-05 at cycle   9 NSaved=   9.
 NSaved= 9 IEnMin= 9 EnMin= -279.506318973573     IErMin= 9 ErrMin= 2.04D-05
 ErrMax= 2.04D-05  0.00D+00 EMaxC= 1.00D-01 BMatC= 1.17D-07 BMatP= 6.01D-07
 IDIUse=1 WtCom= 1.00D+00 WtEn= 0.00D+00
 Coeff-Com:  0.241D-03-0.257D-02-0.530D-02-0.567D-02 0.470D-01 0.491D-01
 Coeff-Com: -0.339D+00 0.298D-01 0.123D+01
 Coeff:      0.241D-03-0.257D-02-0.530D-02-0.567D-02 0.470D-01 0.491D-01
 Coeff:     -0.339D+00 0.298D-01 0.123D+01
 Gap=     0.532 Goal=   None    Shift=    0.000
 RMSDP=2.48D-06 MaxDP=7.43D-05 DE=-1.39D-06 OVMax= 2.17D-04

 Cycle  10  Pass 1  IDiag  1:
 E= -279.506319239346     Delta-E=       -0.000000265773 Rises=F Damp=F
 DIIS: error= 5.49D-06 at cycle  10 NSaved=  10.
 NSaved=10 IEnMin=10 EnMin= -279.506319239346     IErMin=10 ErrMin= 5.49D-06
 ErrMax= 5.49D-06  0.00D+00 EMaxC= 1.00D-01 BMatC= 8.34D-09 BMatP= 1.17D-07
 IDIUse=1 WtCom= 1.00D+00 WtEn= 0.00D+00
 Coeff-Com: -0.380D-04 0.487D-03 0.120D-02-0.187D-02-0.109D-01 0.539D-02
 Coeff-Com:  0.725D-01-0.537D-01-0.436D+00 0.142D+01
 Coeff:     -0.380D-04 0.487D-03 0.120D-02-0.187D-02-0.109D-01 0.539D-02
 Coeff:      0.725D-01-0.537D-01-0.436D+00 0.142D+01
 Gap=     0.532 Goal=   None    Shift=    0.000
 RMSDP=7.15D-07 MaxDP=2.55D-05 DE=-2.66D-07 OVMax= 6.65D-05

 Cycle  11  Pass 1  IDiag  1:
 E= -279.506319264812     Delta-E=       -0.000000025466 Rises=F Damp=F
 DIIS: error= 2.20D-06 at cycle  11 NSaved=  11.
 NSaved=11 IEnMin=11 EnMin= -279.506319264812     IErMin=11 ErrMin= 2.20D-06
 ErrMax= 2.20D-06  0.00D+00 EMaxC= 1.00D-01 BMatC= 8.62D-10 BMatP= 8.34D-09
 IDIUse=1 WtCom= 1.00D+00 WtEn= 0.00D+00
 Coeff-Com: -0.164D-04 0.168D-03 0.340D-03 0.915D-03-0.219D-02-0.728D-02
 Coeff-Com:  0.190D-01 0.195D-01-0.489D-01-0.329D+00 0.135D+01
 Coeff:     -0.164D-04 0.168D-03 0.340D-03 0.915D-03-0.219D-02-0.728D-02
 Coeff:      0.190D-01 0.195D-01-0.489D-01-0.329D+00 0.135D+01
 Gap=     0.532 Goal=   None    Shift=    0.000
 RMSDP=2.53D-07 MaxDP=8.88D-06 DE=-2.55D-08 OVMax= 2.40D-05

 Cycle  12  Pass 1  IDiag  1:
 E= -279.506319267999     Delta-E=       -0.000000003187 Rises=F Damp=F
 DIIS: error= 7.13D-07 at cycle  12 NSaved=  12.
 NSaved=12 IEnMin=12 EnMin= -279.506319267999     IErMin=12 ErrMin= 7.13D-07
 ErrMax= 7.13D-07  0.00D+00 EMaxC= 1.00D-01 BMatC= 9.48D-11 BMatP= 8.62D-10
 IDIUse=1 WtCom= 1.00D+00 WtEn= 0.00D+00
 Coeff-Com:  0.277D-05-0.471D-04-0.104D-03 0.137D-03 0.118D-02-0.742D-03
 Coeff-Com: -0.759D-02 0.643D-02 0.426D-01-0.116D+00-0.189D+00 0.126D+01
 Coeff:      0.277D-05-0.471D-04-0.104D-03 0.137D-03 0.118D-02-0.742D-03
 Coeff:     -0.759D-02 0.643D-02 0.426D-01-0.116D+00-0.189D+00 0.126D+01
 Gap=     0.532 Goal=   None    Shift=    0.000
 RMSDP=9.26D-08 MaxDP=2.69D-06 DE=-3.19D-09 OVMax= 8.46D-06

 Cycle  13  Pass 1  IDiag  1:
 E= -279.506319268359     Delta-E=       -0.000000000361 Rises=F Damp=F
 DIIS: error= 1.66D-07 at cycle  13 NSaved=  13.
 NSaved=13 IEnMin=13 EnMin= -279.506319268359     IErMin=13 ErrMin= 1.66D-07
 ErrMax= 1.66D-07  0.00D+00 EMaxC= 1.00D-01 BMatC= 9.89D-12 BMatP= 9.48D-11
 IDIUse=1 WtCom= 1.00D+00 WtEn= 0.00D+00
 Coeff-Com:  0.138D-05-0.128D-04-0.174D-04-0.133D-03 0.358D-04 0.102D-02
 Coeff-Com: -0.102D-02-0.290D-02-0.265D-02 0.607D-01-0.135D+00-0.177D+00
 Coeff-Com:  0.126D+01
 Coeff:      0.138D-05-0.128D-04-0.174D-04-0.133D-03 0.358D-04 0.102D-02
 Coeff:     -0.102D-02-0.290D-02-0.265D-02 0.607D-01-0.135D+00-0.177D+00
 Coeff:      0.126D+01
 Gap=     0.532 Goal=   None    Shift=    0.000
 RMSDP=2.97D-08 MaxDP=5.21D-07 DE=-3.61D-10 OVMax= 3.82D-06

 Cycle  14  Pass 1  IDiag  1:
 E= -279.506319268398     Delta-E=       -0.000000000039 Rises=F Damp=F
 DIIS: error= 7.28D-08 at cycle  14 NSaved=  14.
 NSaved=14 IEnMin=14 EnMin= -279.506319268398     IErMin=14 ErrMin= 7.28D-08
 ErrMax= 7.28D-08  0.00D+00 EMaxC= 1.00D-01 BMatC= 1.54D-12 BMatP= 9.89D-12
 IDIUse=1 WtCom= 1.00D+00 WtEn= 0.00D+00
 Coeff-Com: -0.522D-06 0.716D-05 0.133D-04 0.785D-05-0.151D-03-0.240D-04
 Coeff-Com:  0.969D-03-0.217D-03-0.440D-02 0.465D-02 0.357D-01-0.997D-01
 Coeff-Com: -0.160D+00 0.122D+01
 Coeff:     -0.522D-06 0.716D-05 0.133D-04 0.785D-05-0.151D-03-0.240D-04
 Coeff:      0.969D-03-0.217D-03-0.440D-02 0.465D-02 0.357D-01-0.997D-01
 Coeff:     -0.160D+00 0.122D+01
 Gap=     0.532 Goal=   None    Shift=    0.000
 RMSDP=1.15D-08 MaxDP=2.70D-07 DE=-3.90D-11 OVMax= 2.04D-06

 Cycle  15  Pass 1  IDiag  1:
 E= -279.506319268403     Delta-E=       -0.000000000005 Rises=F Damp=F
 DIIS: error= 4.58D-08 at cycle  15 NSaved=  15.
 NSaved=15 IEnMin=15 EnMin= -279.506319268403     IErMin=15 ErrMin= 4.58D-08
 ErrMax= 4.58D-08  0.00D+00 EMaxC= 1.00D-01 BMatC= 4.64D-13 BMatP= 1.54D-12
 IDIUse=1 WtCom= 1.00D+00 WtEn= 0.00D+00
 Coeff-Com:  0.346D-07-0.971D-06-0.426D-05 0.200D-04 0.710D-04-0.172D-03
 Coeff-Com: -0.317D-03 0.600D-03 0.269D-02-0.132D-01 0.675D-02 0.848D-01
 Coeff-Com: -0.179D+00-0.634D+00 0.173D+01
 Coeff:      0.346D-07-0.971D-06-0.426D-05 0.200D-04 0.710D-04-0.172D-03
 Coeff:     -0.317D-03 0.600D-03 0.269D-02-0.132D-01 0.675D-02 0.848D-01
 Coeff:     -0.179D+00-0.634D+00 0.173D+01
 Gap=     0.532 Goal=   None    Shift=    0.000
 RMSDP=1.05D-08 MaxDP=2.63D-07 DE=-4.77D-12 OVMax= 1.96D-06

 Cycle  16  Pass 1  IDiag  1:
 E= -279.506319268407     Delta-E=       -0.000000000004 Rises=F Damp=F
 DIIS: error= 1.99D-08 at cycle  16 NSaved=  16.
 NSaved=16 IEnMin=16 EnMin= -279.506319268407     IErMin=16 ErrMin= 1.99D-08
 ErrMax= 1.99D-08  0.00D+00 EMaxC= 1.00D-01 BMatC= 9.65D-14 BMatP= 4.64D-13
 IDIUse=1 WtCom= 1.00D+00 WtEn= 0.00D+00
 Coeff-Com:  0.881D-07-0.119D-05-0.838D-06-0.120D-04 0.275D-05 0.810D-04
 Coeff-Com: -0.500D-04-0.281D-03-0.148D-03 0.485D-02-0.115D-01-0.154D-01
 Coeff-Com:  0.123D+00 0.335D-01-0.924D+00 0.179D+01
 Coeff:      0.881D-07-0.119D-05-0.838D-06-0.120D-04 0.275D-05 0.810D-04
 Coeff:     -0.500D-04-0.281D-03-0.148D-03 0.485D-02-0.115D-01-0.154D-01
 Coeff:      0.123D+00 0.335D-01-0.924D+00 0.179D+01
 Gap=     0.532 Goal=   None    Shift=    0.000
 RMSDP=6.27D-09 MaxDP=1.59D-07 DE=-3.69D-12 OVMax= 1.19D-06

 SCF Done:  E(RHF) =  -279.506319268     A.U. after   16 cycles
            NFock= 16  Conv=0.63D-08     -V/T= 2.0022
 KE= 2.788853488667D+02 PE=-9.063546335958D+02 EE= 2.252196974402D+02
 Leave Link  502 at Sun Mar  6 19:58:18 2022, MaxMem= 16106127360 cpu:              48.7 elap:               7.7
 (Enter /sw/contrib/gaussian/g16/B01/g16/l801.exe)
 ExpMin= 2.53D-02 ExpMax= 1.53D+04 ExpMxC= 5.22D+02 IAcc=3 IRadAn=         5 AccDes= 0.00D+00
 HarFok:  IExCor=  205 AccDes= 0.00D+00 IRadAn=         5 IDoV=-2 UseB2=F ITyADJ=14
 ICtDFT= 12500011 ScaDFX=  1.000000  1.000000  1.000000  1.000000
 Largest valence mixing into a core orbital is  2.07D-04
 Largest core mixing into a valence orbital is  3.10D-05
 Range of M.O.s used for correlation:     5   207
 NBasis=   207 NAE=    16 NBE=    16 NFC=     4 NFV=     0
 NROrb=    203 NOA=    12 NOB=    12 NVA=   191 NVB=   191

 **** Warning!!: The largest alpha MO coefficient is  0.16315806D+02

 Leave Link  801 at Sun Mar  6 19:58:18 2022, MaxMem= 16106127360 cpu:               2.1 elap:               0.1
 (Enter /sw/contrib/gaussian/g16/B01/g16/l906.exe)
 Frozen-core derivative calculation, NFC=   4 NFV=   0.
 FulOut=F Deriv=T AODrv=T NAtomX=     5
   MMem=           0  MDisk=          12 MDiskD=          12
  W3Min=      811440 MinDsk=     2425030 NBas6D=         245
 NBas2D=       30762    NTT=       30135    LW2=     7400000
    MDV= 16105635804 MDiskM=      328645 NBas2p=       30759
 Disk-based method using ON**2 memory for 12 occupieds at a time.
 Permanent disk used for amplitudes=    11516536 words.
 Estimated scratch disk usage=   321863743 words.
 IMap=   1   2   3   4   5   6   7   8   9  10  11  12  13  14  15  16
 Actual    scratch disk usage=   310892607 words.
 JobTyp=1 Pass  1:  I=   5 to  16 NPSUse= 28 ParTrn=T ParDer=T DoDerP=T.
 (rs|ai) integrals will be sorted in core.
 Spin components of T(2) and E(2):
     alpha-alpha T2 =       0.3479356056D-01 E2=     -0.1245404285D+00
     alpha-beta  T2 =       0.1844927623D+00 E2=     -0.6996808447D+00
     beta-beta   T2 =       0.3479356056D-01 E2=     -0.1245404285D+00
 The integrals were generated   1 times.
 ANorm=    0.1119857082D+01
 E2 =    -0.9487617017D+00 EUMP2 =    -0.28045508097015D+03
 Leave Link  906 at Sun Mar  6 19:59:56 2022, MaxMem= 16106127360 cpu:            2749.8 elap:              98.3
 (Enter /sw/contrib/gaussian/g16/B01/g16/l1101.exe)
 Using compressed Sx but separate Hx and Fx, NAtomX=     5.
 Will process      6 centers per pass.
 Leave Link 1101 at Sun Mar  6 19:59:57 2022, MaxMem= 16106127360 cpu:               5.1 elap:               0.2
 (Enter /sw/contrib/gaussian/g16/B01/g16/l1102.exe)
 Leave Link 1102 at Sun Mar  6 19:59:57 2022, MaxMem= 16106127360 cpu:               0.5 elap:               0.0
 (Enter /sw/contrib/gaussian/g16/B01/g16/l1110.exe)
 Forming Gx(P) for the SCF density, NAtomX=     5.
 Integral derivatives from FoFJK, PRISM(SPDF).
 Do as many integral derivatives as possible in FoFJK.
 G2DrvN: MDV=   16106126844.
 G2DrvN: will do     6 centers at a time, making    1 passes.
 Calling FoFCou, ICntrl=  3107 FMM=F I1Cent=   0 AccDes= 0.00D+00.
 FoFJK:  IHMeth= 1 ICntrl=    3107 DoSepK=F KAlg= 0 I1Cent=           0 FoldK=F
 IRaf=         0 NMat=       1 IRICut=       1 DoRegI=T DoRafI=F ISym2E= 0 IDoP0=0 IntGTp=1.
 FoFCou: FMM=F IPFlag=           0 FMFlag=      100000 FMFlg1=           0
         NFxFlg=           0 DoJE=F BraDBF=F KetDBF=F FulRan=T
         wScrn=  0.000000 ICntrl=      3107 IOpCl=  0 I1Cent=           0 NGrid=           0
         NMat0=    1 NMatS0=      1 NMatT0=    0 NMatD0=    1 NMtDS0=    0 NMtDT0=    0
 Symmetry not used in FoFCou.
 End of G2Drv F.D. properties file   721 does not exist.
 End of G2Drv F.D. properties file   722 does not exist.
 End of G2Drv F.D. properties file   788 does not exist.
 Leave Link 1110 at Sun Mar  6 20:00:00 2022, MaxMem= 16106127360 cpu:              87.2 elap:               3.1
 (Enter /sw/contrib/gaussian/g16/B01/g16/l1002.exe)
 Minotr:  Closed shell wavefunction.
          IDoAtm=11111
          Frozen-core window.
          Direct CPHF calculation.
          Differentiating once with respect to electric field.
                with respect to dipole field.
          Differentiating once with respect to nuclear coordinates.
          Requested convergence is 1.0D-08 RMS, and 1.0D-07 maximum.
          Secondary convergence is 1.0D-12 RMS, and 1.0D-12 maximum.
          NewPWx=T KeepS1=T KeepF1=T KeepIn=T MapXYZ=F SortEE=F KeepMc=T.
 Keep R1 ints in memory in canonical form, NReq=245624906.
 FoFCou: FMM=F IPFlag=           0 FMFlag=           0 FMFlg1=           0
         NFxFlg=           0 DoJE=F BraDBF=F KetDBF=F FulRan=T
         wScrn=  0.000000 ICntrl=       600 IOpCl=  0 I1Cent=           0 NGrid=           0
         NMat0=    1 NMatS0=  21528 NMatT0=    0 NMatD0=    1 NMtDS0=    0 NMtDT0=    0
 Symmetry not used in FoFCou.
 Two-electron integral symmetry not used.
          MDV=   16106127360 using IRadAn=       1.
          Solving linear equations simultaneously, MaxMat=       0.
          There are    18 degrees of freedom in the 1st order CPHF.  IDoFFX=6 NUNeed=    18.
     15 vectors produced by pass  0 Test12= 1.70D-14 5.56D-09 XBig12= 7.45D+00 1.30D+00.
 AX will form    15 AO Fock derivatives at one time.
     15 vectors produced by pass  1 Test12= 1.70D-14 5.56D-09 XBig12= 1.30D+00 2.35D-01.
     15 vectors produced by pass  2 Test12= 1.70D-14 5.56D-09 XBig12= 9.08D-02 8.06D-02.
     15 vectors produced by pass  3 Test12= 1.70D-14 5.56D-09 XBig12= 3.21D-03 1.20D-02.
     15 vectors produced by pass  4 Test12= 1.70D-14 5.56D-09 XBig12= 6.98D-05 1.59D-03.
     15 vectors produced by pass  5 Test12= 1.70D-14 5.56D-09 XBig12= 7.39D-07 1.06D-04.
     15 vectors produced by pass  6 Test12= 1.70D-14 5.56D-09 XBig12= 4.66D-09 1.23D-05.
     13 vectors produced by pass  7 Test12= 1.70D-14 5.56D-09 XBig12= 3.46D-11 8.56D-07.
      3 vectors produced by pass  8 Test12= 1.70D-14 5.56D-09 XBig12= 2.91D-13 6.26D-08.
      1 vectors produced by pass  9 Test12= 1.70D-14 5.56D-09 XBig12= 2.57D-15 7.72D-09.
 InvSVY:  IOpt=1 It=  1 EMax= 7.77D-16
 Solved reduced A of dimension   122 with    15 vectors.
 FullF1:  Do perturbations      1 to      18.
 Saving first derivative matrices.
 End of Minotr F.D. properties file   721 does not exist.
 End of Minotr F.D. properties file   722 does not exist.
 End of Minotr F.D. properties file   788 does not exist.
 Leave Link 1002 at Sun Mar  6 20:00:04 2022, MaxMem= 16106127360 cpu:              99.2 elap:               4.0
 (Enter /sw/contrib/gaussian/g16/B01/g16/l811.exe)
 MDV= 16106127360.
 Form MO integral derivatives with frozen-active canonical formalism.
 MOERI=1 MOERIx=1 NAtoms=     5 NAtomX=     5.
 Discarding MO integrals.
 MO basis two electron integral derivatives will not be stored on disk.
 IAlg= 3 DoFC=T DoPWx=T Debug=F.
 Frozen-core window:  NFC=   4 NFV=   0.
 Reordered first order wavefunction length =     18678272
 In DefCFB: NBatch=  1 ICI= 16 ICA=191 LFMax= 96
            Large arrays: LIAPS=   619940160 LIARS=   288257200 words.
 In StABat: MaxSiz= 55 MinSiz= 25 NAtomB=  5
 DoIAMN: NPSUse= 28.
 Leave Link  811 at Sun Mar  6 20:01:37 2022, MaxMem= 16106127360 cpu:            2594.8 elap:              92.9
 (Enter /sw/contrib/gaussian/g16/B01/g16/l804.exe)
 Frozen-core window:  NFC=   4 NFV=   0.
 Closed-shell transformation, MDV= 16106127360 ITran=4 ISComp=1.
 Semi-Direct transformation.
 ModeAB=           2 MOrb=            16 LenV=   16104922737
 LASXX=     67341636 LTotXX=    67341636 LenRXX=    67341636
 LTotAB=    68301760 MaxLAS=    99807120 LenRXY=    99807120
 NonZer=   134683272 LenScr=   202817536 LnRSAI=           0
 LnScr1=           0 LExtra=           0 Total=    369966292
 MaxDsk=          -1 SrtSym=           F ITran=            4
 DoSDTr:  NPSUse= 28
 JobTyp=0 Pass  1:  I=   1 to  16.
 (rs|ai) integrals will be sorted in core.
 Complete sort for first half transformation.
 First half transformation complete.
 Begin second half transformation for I=  10.
 Begin second half transformation for I=  10.
 Complete sort for second half transformation.
 Second half transformation complete.
 SymMOI:  orbitals are not symmetric.
 Spin components of T(2) and E(2):
     alpha-alpha T2 =       0.3479356056D-01 E2=     -0.1245404285D+00
     alpha-beta  T2 =       0.1844927623D+00 E2=     -0.6996808447D+00
     beta-beta   T2 =       0.3479356056D-01 E2=     -0.1245404285D+00
 ANorm=    0.1583717073D+01
 E2 =    -0.9487617017D+00 EUMP2 =    -0.28045508097015D+03
 Leave Link  804 at Sun Mar  6 20:01:51 2022, MaxMem= 16106127360 cpu:             385.4 elap:              13.9
 (Enter /sw/contrib/gaussian/g16/B01/g16/l1002.exe)
 Minotr:  Closed shell wavefunction.
          Computing MP2/KS-MP2 derivatives.
          Using Z-Vector for PSCF gradient.
          Skipping F1 and S1 gradient terms here.
          IDoAtm=11111
          Frozen-core window.
          Using MO integrals in the linear equations.
          Forming densities via direct SCF.
          Differentiating once with respect to electric field.
                with respect to dipole field.
          Differentiating once with respect to nuclear coordinates.
          Requested convergence is 1.0D-10 RMS, and 1.0D-09 maximum.
          NewPWx=F KeepS1=T KeepF1=T KeepIn=T MapXYZ=F SortEE=F KeepMc=T.
          MDV=   16106127360 using IRadAn=       5.
          Solving linear equations separately, MaxMat=       0.
          There are     1 degrees of freedom in the 1st order CPHF.  IDoFFX=0 NUNeed=     1.
 FoFJK:  IHMeth= 1 ICntrl=       0 DoSepK=F KAlg= 0 I1Cent=           0 FoldK=F
 IRaf=         0 NMat=       1 IRICut=       1 DoRegI=T DoRafI=F ISym2E= 0 IDoP0=0 IntGTp=1.
 FoFCou: FMM=F IPFlag=           0 FMFlag=      100000 FMFlg1=           0
         NFxFlg=           0 DoJE=F BraDBF=F KetDBF=F FulRan=T
         wScrn=  0.000000 ICntrl=         0 IOpCl=  0 I1Cent=           0 NGrid=           0
         NMat0=    1 NMatS0=      1 NMatT0=    0 NMatD0=    1 NMtDS0=    0 NMtDT0=    0
 Symmetry not used in FoFCou.
 LinEq1:  Iter=  0 NonCon=     1 RMS=6.59D-03 Max=1.68D-01 NDo=     1
 LinEq1:  Iter=  1 NonCon=     1 RMS=2.00D-03 Max=3.05D-02 NDo=     1
 LinEq1:  Iter=  2 NonCon=     1 RMS=8.88D-04 Max=1.44D-02 NDo=     1
 LinEq1:  Iter=  3 NonCon=     1 RMS=3.80D-04 Max=8.06D-03 NDo=     1
 LinEq1:  Iter=  4 NonCon=     1 RMS=1.37D-04 Max=1.65D-03 NDo=     1
 LinEq1:  Iter=  5 NonCon=     1 RMS=7.64D-05 Max=1.09D-03 NDo=     1
 LinEq1:  Iter=  6 NonCon=     1 RMS=2.45D-05 Max=3.13D-04 NDo=     1
 LinEq1:  Iter=  7 NonCon=     1 RMS=8.25D-06 Max=9.38D-05 NDo=     1
 LinEq1:  Iter=  8 NonCon=     1 RMS=4.04D-06 Max=6.46D-05 NDo=     1
 LinEq1:  Iter=  9 NonCon=     1 RMS=1.09D-06 Max=1.45D-05 NDo=     1
 LinEq1:  Iter= 10 NonCon=     1 RMS=2.63D-07 Max=5.79D-06 NDo=     1
 LinEq1:  Iter= 11 NonCon=     1 RMS=7.47D-08 Max=2.33D-06 NDo=     1
 LinEq1:  Iter= 12 NonCon=     1 RMS=2.17D-08 Max=5.02D-07 NDo=     1
 LinEq1:  Iter= 13 NonCon=     1 RMS=4.99D-09 Max=8.59D-08 NDo=     1
 LinEq1:  Iter= 14 NonCon=     1 RMS=9.62D-10 Max=9.08D-09 NDo=     1
 LinEq1:  Iter= 15 NonCon=     1 RMS=2.54D-10 Max=2.68D-09 NDo=     1
 LinEq1:  Iter= 16 NonCon=     0 RMS=5.24D-11 Max=7.64D-10 NDo=     1
 Linear equations converged to 1.000D-10 1.000D-09 after    16 iterations.
 End of Minotr F.D. properties file   721 does not exist.
 End of Minotr F.D. properties file   722 does not exist.
 End of Minotr F.D. properties file   788 does not exist.
 Leave Link 1002 at Sun Mar  6 20:01:53 2022, MaxMem= 16106127360 cpu:              65.8 elap:               2.4
 (Enter /sw/contrib/gaussian/g16/B01/g16/l1102.exe)
 Use density number 2.
 Symmetrizing basis deriv contribution to polar:
 IMax=3 JMax=2 DiffMx= 0.00D+00
 Leave Link 1102 at Sun Mar  6 20:01:53 2022, MaxMem= 16106127360 cpu:               0.6 elap:               0.0
 (Enter /sw/contrib/gaussian/g16/B01/g16/l1110.exe)
 Forming Gx(P) for generalized density number  2 NAtomX=     5.
 Integral derivatives from FoFJK, PRISM(SPDF).
 Do as many integral derivatives as possible in FoFJK.
 G2DrvN: MDV=   16106126844.
 G2DrvN: will do     6 centers at a time, making    1 passes.
 Calling FoFCou, ICntrl=  3107 FMM=F I1Cent=   0 AccDes= 0.00D+00.
 FoFJK:  IHMeth= 1 ICntrl=    3107 DoSepK=F KAlg= 0 I1Cent=           0 FoldK=F
 IRaf=         0 NMat=       1 IRICut=       1 DoRegI=T DoRafI=F ISym2E= 0 IDoP0=0 IntGTp=1.
 FoFCou: FMM=F IPFlag=           0 FMFlag=      100000 FMFlg1=           0
         NFxFlg=           0 DoJE=F BraDBF=F KetDBF=F FulRan=T
         wScrn=  0.000000 ICntrl=      3107 IOpCl=  0 I1Cent=           0 NGrid=           0
         NMat0=    1 NMatS0=      1 NMatT0=    0 NMatD0=    1 NMtDS0=    0 NMtDT0=    0
 Symmetry not used in FoFCou.
 End of G2Drv F.D. properties file   721 does not exist.
 End of G2Drv F.D. properties file   722 does not exist.
 End of G2Drv F.D. properties file   788 does not exist.
 Leave Link 1110 at Sun Mar  6 20:01:56 2022, MaxMem= 16106127360 cpu:              87.2 elap:               3.1
 (Enter /sw/contrib/gaussian/g16/B01/g16/l1112.exe)
 MP22nd: MDV=   16106127360
 This link is doing NAtomX=     5 total of    18 degrees of freedom.
 Using ON3 I/O method in MakUI.
 Frozen-core window:  NFC=   4 NFV=   0.
 Using Ix for Sx.
 Use MO integrals over full window.
 Using OV2 memory method for fx*t*t/D, MaxI=    16 DoOO2=F NP=  28.
 R2 and R3 integrals will be kept in memory, NReq=   915591705.
 FoFCou: FMM=F IPFlag=           0 FMFlag=           0 FMFlg1=           0
         NFxFlg=           0 DoJE=F BraDBF=F KetDBF=F FulRan=T
         wScrn=  0.000000 ICntrl=       600 IOpCl=  0 I1Cent=           0 NGrid=           0
         NMat0=    1 NMatS0=      1 NMatT0=    0 NMatD0=    1 NMtDS0=    0 NMtDT0=    0
 Symmetry not used in FoFCou.
 DD1Dir will call FoFMem   1 times, MxPair=       272
 NAB=   136 NAA=     0 NBB=     0.
 Symmetry is being used.
 FoFJK:  IHMeth= 1 ICntrl=       0 DoSepK=F KAlg= 0 I1Cent=           0 FoldK=F
 IRaf=         0 NMat=      18 IRICut=      45 DoRegI=T DoRafI=T ISym2E= 2 IDoP0=3 IntGTp=3.
 Discarding MO integrals.
 Leave Link 1112 at Sun Mar  6 20:02:31 2022, MaxMem= 16106127360 cpu:             951.7 elap:              34.4
 (Enter /sw/contrib/gaussian/g16/B01/g16/l601.exe)
 Copying SCF densities to generalized density rwf, IOpCl= 0 IROHF=0.

 **********************************************************************

            Population analysis using the MP2 Density.

 **********************************************************************

 Orbital symmetries:
       Occupied  (A) (A) (A) (A) (A) (A) (A) (A) (A) (A) (A) (A)
                 (A) (A) (A) (A)
       Virtual   (A) (A) (A) (A) (A) (A) (A) (A) (A) (A) (A) (A)
                 (A) (A) (A) (A) (A) (A) (A) (A) (A) (A) (A) (A)
                 (A) (A) (A) (A) (A) (A) (A) (A) (A) (A) (A) (A)
                 (A) (A) (A) (A) (A) (A) (A) (A) (A) (A) (A) (A)
                 (A) (A) (A) (A) (A) (A) (A) (A) (A) (A) (A) (A)
                 (A) (A) (A) (A) (A) (A) (A) (A) (A) (A) (A) (A)
                 (A) (A) (A) (A) (A) (A) (A) (A) (A) (A) (A) (A)
                 (A) (A) (A) (A) (A) (A) (A) (A) (A) (A) (A) (A)
                 (A) (A) (A) (A) (A) (A) (A) (A) (A) (A) (A) (A)
                 (A) (A) (A) (A) (A) (A) (A) (A) (A) (A) (A) (A)
                 (A) (A) (A) (A) (A) (A) (A) (A) (A) (A) (A) (A)
                 (A) (A) (A) (A) (A) (A) (A) (A) (A) (A) (A) (A)
                 (A) (A) (A) (A) (A) (A) (A) (A) (A) (A) (A) (A)
                 (A) (A) (A) (A) (A) (A) (A) (A) (A) (A) (A) (A)
                 (A) (A) (A) (A) (A) (A) (A) (A) (A) (A) (A) (A)
                 (A) (A) (A) (A) (A) (A) (A) (A) (A) (A) (A)
 The electronic state is 1-A.
 Alpha  occ. eigenvalues --  -20.71971 -20.68726 -20.66833 -15.82599  -1.64425
 Alpha  occ. eigenvalues --   -1.50517  -1.29375  -0.96036  -0.83457  -0.75894
 Alpha  occ. eigenvalues --   -0.73991  -0.63748  -0.61915  -0.61798  -0.50481
 Alpha  occ. eigenvalues --   -0.49731
 Alpha virt. eigenvalues --    0.03505   0.06015   0.09512   0.10038   0.11919
 Alpha virt. eigenvalues --    0.12300   0.14943   0.15204   0.17737   0.18051
 Alpha virt. eigenvalues --    0.18966   0.21114   0.21678   0.24253   0.24633
 Alpha virt. eigenvalues --    0.26890   0.31167   0.31769   0.33806   0.34386
 Alpha virt. eigenvalues --    0.34682   0.39262   0.44844   0.48782   0.50563
 Alpha virt. eigenvalues --    0.51868   0.54483   0.56129   0.59900   0.62033
 Alpha virt. eigenvalues --    0.63832   0.68980   0.71686   0.72465   0.74313
 Alpha virt. eigenvalues --    0.76375   0.76730   0.79495   0.80618   0.84072
 Alpha virt. eigenvalues --    0.84321   0.85206   0.88562   0.90776   0.93000
 Alpha virt. eigenvalues --    0.94863   0.95420   1.01786   1.03289   1.06122
 Alpha virt. eigenvalues --    1.06554   1.09607   1.14364   1.15633   1.17023
 Alpha virt. eigenvalues --    1.22187   1.22693   1.24618   1.35191   1.36237
 Alpha virt. eigenvalues --    1.37115   1.46850   1.48596   1.50472   1.54140
 Alpha virt. eigenvalues --    1.59251   1.59802   1.60966   1.62865   1.69544
 Alpha virt. eigenvalues --    1.74041   1.80129   1.82997   1.88705   1.89723
 Alpha virt. eigenvalues --    1.92961   1.97907   1.98939   2.05231   2.12370
 Alpha virt. eigenvalues --    2.13072   2.16527   2.18814   2.24047   2.26302
 Alpha virt. eigenvalues --    2.29458   2.35208   2.36593   2.38652   2.40220
 Alpha virt. eigenvalues --    2.43368   2.46808   2.48021   2.52861   2.53912
 Alpha virt. eigenvalues --    2.54858   2.55974   2.61618   2.63028   2.67052
 Alpha virt. eigenvalues --    2.67467   2.75367   2.80857   2.81911   2.84196
 Alpha virt. eigenvalues --    2.91862   2.98516   3.04657   3.05103   3.11547
 Alpha virt. eigenvalues --    3.11824   3.17313   3.21309   3.30748   3.33238
 Alpha virt. eigenvalues --    3.36110   3.47776   3.67789   3.86982   3.93028
 Alpha virt. eigenvalues --    4.18275   4.21963   4.22885   4.26913   4.36980
 Alpha virt. eigenvalues --    4.50028   4.52778   4.55625   4.59923   4.69362
 Alpha virt. eigenvalues --    4.80962   4.89605   4.91771   4.94139   4.99789
 Alpha virt. eigenvalues --    5.00621   5.10845   5.13302   5.17948   5.24973
 Alpha virt. eigenvalues --    5.25916   5.31773   5.34701   5.35612   5.54692
 Alpha virt. eigenvalues --    5.64497   5.70641   5.88964   5.99736   6.26447
 Alpha virt. eigenvalues --    6.29594   6.36101   6.37666   6.59828   6.65927
 Alpha virt. eigenvalues --    6.65981   6.69008   6.72590   6.79526   6.80717
 Alpha virt. eigenvalues --    6.85073   6.96788   7.02078   7.06641   7.08055
 Alpha virt. eigenvalues --    7.13873   7.17234   7.17794   7.20342   7.24431
 Alpha virt. eigenvalues --    7.24919   7.27170   7.34980   7.39435   7.42807
 Alpha virt. eigenvalues --    7.44305   7.46277   7.55971   7.66347   7.66744
 Alpha virt. eigenvalues --    7.79438   7.88278   7.95283   8.06374   8.30654
 Alpha virt. eigenvalues --    8.49968   8.65221  13.61892  14.76327  15.10388
 Alpha virt. eigenvalues --   15.76234
          Condensed to atoms (all electrons):
               1          2          3          4          5
     1  H    0.578586   0.124265   0.024249  -0.000367  -0.004852
     2  O    0.124265   8.390176  -0.230797  -0.000589  -0.008956
     3  O    0.024249  -0.230797   8.372190  -0.169127  -0.034066
     4  N   -0.000367  -0.000589  -0.169127   7.135120  -0.119349
     5  O   -0.004852  -0.008956  -0.034066  -0.119349   8.363104
 Mulliken charges:
               1
     1  H    0.278119
     2  O   -0.274099
     3  O    0.037549
     4  N    0.154312
     5  O   -0.195881
 Sum of Mulliken charges =  -0.00000
 Mulliken charges with hydrogens summed into heavy atoms:
               1
     2  O    0.004020
     3  O    0.037549
     4  N    0.154312
     5  O   -0.195881
 APT charges:
               1
     1  H    0.271391
     2  O   -0.302407
     3  O   -0.309376
     4  N    0.643298
     5  O   -0.302905
 Sum of APT charges =  -0.00000
 APT charges with hydrogens summed into heavy atoms:
               1
     2  O   -0.031016
     3  O   -0.309376
     4  N    0.643298
     5  O   -0.302905
 Electronic spatial extent (au):  <R**2>=            207.2410
 Charge=             -0.0000 electrons
 Dipole moment (field-independent basis, Debye):
    X=              0.6062    Y=             -0.9132    Z=              0.0441  Tot=              1.0970
 Quadrupole moment (field-independent basis, Debye-Ang):
   XX=            -25.1098   YY=            -21.2127   ZZ=            -21.9312
   XY=              0.3834   XZ=             -0.0289   YZ=             -0.1138
 Traceless Quadrupole moment (field-independent basis, Debye-Ang):
   XX=             -2.3586   YY=              1.5386   ZZ=              0.8200
   XY=              0.3834   XZ=             -0.0289   YZ=             -0.1138
 Octapole moment (field-independent basis, Debye-Ang**2):
  XXX=             -0.1511  YYY=             -5.4945  ZZZ=             -0.0433  XYY=             -2.3109
  XXY=              0.5369  XXZ=             -0.0886  XZZ=              0.8893  YZZ=             -0.2247
  YYZ=              0.0582  XYZ=              0.0331
 Hexadecapole moment (field-independent basis, Debye-Ang**3):
 XXXX=           -153.9990 YYYY=            -65.2255 ZZZZ=            -18.0619 XXXY=             -2.8048
 XXXZ=             -0.0471 YYYX=             -0.2059 YYYZ=             -0.2437 ZZZX=             -0.0364
 ZZZY=             -0.0397 XXYY=            -36.9617 XXZZ=            -27.9859 YYZZ=            -14.9449
 XXYZ=             -0.0918 YYXZ=             -0.1325 ZZXY=             -0.9804
 N-N= 1.227432680204D+02 E-N=-9.070429378849D+02  KE= 2.802027450377D+02
  Exact polarizability:  34.496  -0.730  26.272   0.038  -0.008  17.624
 Approx polarizability:  26.139  -1.635  26.070   0.019   0.007  15.521
 No NMR shielding tensors so no spin-rotation constants.
 Leave Link  601 at Sun Mar  6 20:02:31 2022, MaxMem= 16106127360 cpu:               4.3 elap:               0.2
 (Enter /sw/contrib/gaussian/g16/B01/g16/l701.exe)
 ... and contract with generalized density number  2.
 Compute integral second derivatives.
 Leave Link  701 at Sun Mar  6 20:02:31 2022, MaxMem= 16106127360 cpu:               5.6 elap:               0.2
 (Enter /sw/contrib/gaussian/g16/B01/g16/l702.exe)
 L702 exits ... SP integral derivatives will be done elsewhere.
 Leave Link  702 at Sun Mar  6 20:02:31 2022, MaxMem= 16106127360 cpu:               1.1 elap:               0.1
 (Enter /sw/contrib/gaussian/g16/B01/g16/l703.exe)
 Integral derivatives from FoFJK, PRISM(SPDF).
 Compute integral second derivatives, UseDBF=F ICtDFT=           0.
 Calling FoFJK, ICntrl=  10100127 FMM=F ISym2X=0 I1Cent= 0 IOpClX= 0 NMat=1 NMatS=1 NMatT=0.
 FoFJK:  IHMeth= 1 ICntrl=10100127 DoSepK=F KAlg= 0 I1Cent=           0 FoldK=F
 IRaf=         0 NMat=       1 IRICut=       1 DoRegI=T DoRafI=F ISym2E= 0 IDoP0=0 IntGTp=1.
 FoFCou: FMM=F IPFlag=           0 FMFlag=      100000 FMFlg1=         800
         NFxFlg=           0 DoJE=F BraDBF=F KetDBF=F FulRan=T
         wScrn=  0.000000 ICntrl=  10100127 IOpCl=  0 I1Cent=           0 NGrid=           0
         NMat0=    1 NMatS0=      1 NMatT0=    0 NMatD0=    1 NMtDS0=    0 NMtDT0=    0
 Symmetry not used in FoFCou.
 Leave Link  703 at Sun Mar  6 20:02:47 2022, MaxMem= 16106127360 cpu:             449.5 elap:              16.1
 (Enter /sw/contrib/gaussian/g16/B01/g16/l716.exe)
 Dipole        = 2.38491412D-01-3.59273145D-01 1.73470830D-02
 Polarizability= 3.44955363D+01-7.29722977D-01 2.62718490D+01
                 3.77302318D-02-7.91360337D-03 1.76239278D+01
 Full mass-weighted force constant matrix:
 Low frequencies ---  -18.0449   -9.9265   -0.0005    0.0007    0.0016    7.6285
 Low frequencies ---  351.6676  395.9018  522.1152
 Diagonal vibrational polarizability:
       13.8023159       3.4627088      16.2345726
 Harmonic frequencies (cm**-1), IR intensities (KM/Mole), Raman scattering
 activities (A**4/AMU), depolarization ratios for plane and unpolarized
 incident light, reduced masses (AMU), force constants (mDyne/A),
 and normal coordinates:
                      1                      2                      3
                      A                      A                      A
 Frequencies --    351.6674               395.8885               522.1150
 Red. masses --      1.5447                 7.1305                 2.9460
 Frc consts  --      0.1126                 0.6584                 0.4732
 IR Inten    --     63.3669                 7.8006                25.3665
  Atom  AN      X      Y      Z        X      Y      Z        X      Y      Z
     1   1    -0.05   0.01   0.98     0.73   0.23   0.03     0.02   0.03   0.93
     2   8    -0.02  -0.00  -0.11     0.45  -0.06  -0.03     0.03  -0.01   0.05
     3   8    -0.00  -0.00   0.11     0.00   0.11   0.04    -0.00   0.01  -0.18
     4   7     0.01   0.00  -0.11    -0.10   0.04  -0.05    -0.00  -0.01   0.27
     5   8     0.01   0.00   0.03    -0.41  -0.10   0.03    -0.03  -0.00  -0.17
                      4                      5                      6
                      A                      A                      A
 Frequencies --    711.5173               837.1544               970.9942
 Red. masses --     13.3095                12.3623                 9.7844
 Frc consts  --      3.9699                 5.1046                 5.4352
 IR Inten    --    217.2862                30.6244                12.7733
  Atom  AN      X      Y      Z        X      Y      Z        X      Y      Z
     1   1    -0.28  -0.21   0.05     0.26   0.39   0.03     0.51   0.37   0.01
     2   8    -0.05   0.06   0.00     0.31   0.48  -0.00    -0.06  -0.25   0.00
     3   8     0.64  -0.25  -0.00    -0.32  -0.21   0.00     0.05   0.54  -0.00
     4   7    -0.60   0.13   0.01    -0.38  -0.21   0.00    -0.33  -0.19  -0.01
     5   8    -0.05   0.09  -0.01     0.33  -0.11  -0.00     0.27  -0.15   0.00
                      7                      8                      9
                      A                      A                      A
 Frequencies --   1434.5372              1570.1952              3487.9816
 Red. masses --      1.3056                 6.3883                 1.0638
 Frc consts  --      1.5830                 9.2800                 7.6251
 IR Inten    --     79.8751               150.0323                42.5241
  Atom  AN      X      Y      Z        X      Y      Z        X      Y      Z
     1   1     0.66   0.74   0.01    -0.51  -0.59   0.00     0.71  -0.70   0.03
     2   8    -0.08   0.00  -0.00     0.03  -0.01   0.00    -0.04   0.04  -0.00
     3   8     0.01  -0.06   0.00    -0.06   0.03  -0.00    -0.00   0.00  -0.00
     4   7     0.02   0.08   0.00    -0.04   0.47   0.01     0.00  -0.00   0.00
     5   8     0.01  -0.05  -0.00     0.10  -0.39  -0.01     0.00   0.00  -0.00

 -------------------
 - Thermochemistry -
 -------------------
 Temperature   298.150 Kelvin.  Pressure   1.00000 Atm.
 Atom     1 has atomic number  1 and mass   1.00783
 Atom     2 has atomic number  8 and mass  15.99491
 Atom     3 has atomic number  8 and mass  15.99491
 Atom     4 has atomic number  7 and mass  14.00307
 Atom     5 has atomic number  8 and mass  15.99491
 Molecular mass:    62.99564 amu.
 Principal axes and moments of inertia in atomic units:
                           1         2         3
     Eigenvalues --    84.49923 222.73506 307.17109
           X            0.99987   0.01593  -0.00029
           Y           -0.01593   0.99987  -0.00150
           Z            0.00026   0.00151   1.00000
 This molecule is an asymmetric top.
 Rotational symmetry number  1.
 Rotational temperatures (Kelvin)      1.02503     0.38887     0.28197
 Rotational constants (GHZ):          21.35808     8.10264     5.87536
 Zero-point vibrational energy      61500.3 (Joules/Mol)
                                   14.69893 (Kcal/Mol)
 Warning -- explicit consideration of   3 degrees of freedom as
           vibrations may cause significant error
 Vibrational temperatures:    505.97   569.60   751.21  1023.71  1204.48
          (Kelvin)           1397.04  2063.98  2259.16  5018.43
 
 Zero-point correction=                           0.023424 (Hartree/Particle)
 Thermal correction to Energy=                    0.027366
 Thermal correction to Enthalpy=                  0.028310
 Thermal correction to Gibbs Free Energy=        -0.002553
 Sum of electronic and zero-point Energies=           -280.431657
 Sum of electronic and thermal Energies=              -280.427715
 Sum of electronic and thermal Enthalpies=            -280.426771
 Sum of electronic and thermal Free Energies=         -280.457634
 
                     E (Thermal)             CV                S
                      KCal/Mol        Cal/Mol-Kelvin    Cal/Mol-Kelvin
 Total                   17.172             12.175             64.957
 Electronic               0.000              0.000              0.000
 Translational            0.889              2.981             38.341
 Rotational               0.889              2.981             23.273
 Vibrational             15.395              6.213              3.343
 Vibration     1          0.728              1.572              1.159
 Vibration     2          0.763              1.479              0.978
 Vibration     3          0.877              1.201              0.605
                       Q            Log10(Q)             Ln(Q)
 Total Bot       0.149428D+02          1.174433          2.704231
 Total V=0       0.888839D+12         11.948823         27.513182
 Vib (Bot)       0.279355D-10        -10.553844        -24.301123
 Vib (Bot)    1  0.524073D+00         -0.280608         -0.646125
 Vib (Bot)    2  0.451569D+00         -0.345276         -0.795028
 Vib (Bot)    3  0.308553D+00         -0.510670         -1.175861
 Vib (V=0)       0.166168D+01          0.220547          0.507829
 Vib (V=0)    1  0.122433D+01          0.087898          0.202393
 Vib (V=0)    2  0.117373D+01          0.069569          0.160188
 Vib (V=0)    3  0.108754D+01          0.036446          0.083920
 Electronic      0.100000D+01          0.000000          0.000000
 Translational   0.196526D+08          7.293420         16.793719
 Rotational      0.272180D+05          4.434856         10.211634
 
                                                                title
                                                             IR Spectrum
 
     3                                                                     1    1                                                    
     4                                                                     5    4                9    8    7     5    3 3            
     8                                                                     7    3                7    3    1     2    9 5            
     8                                                                     0    5                1    7    2     2    6 2            
 
     X                                                                     X    X                X    X    X     X    X X            
     X                                                                     X    X                     X    X     X      X            
     X                                                                     X    X                     X    X            X            
     X                                                                     X    X                          X            X            
                                                                           X    X                          X            X            
                                                                           X    X                          X            X            
                                                                           X    X                          X                         
                                                                           X                               X                         
                                                                           X                               X                         
                                                                           X                               X                         
                                                                           X                               X                         
                                                                           X                               X                         
                                                                           X                               X                         
                                                                           X                               X                         
                                                                                                           X                         
                                                                                                           X                         
                                                                                                           X                         
                                                                                                           X                         
                                                                                                           X                         
                                                                                                           X                         
 
 ***** Axes restored to original set *****
 -------------------------------------------------------------------
 Center     Atomic                   Forces (Hartrees/Bohr)
 Number     Number              X              Y              Z
 -------------------------------------------------------------------
      1        1          -0.000025849    0.000832356    0.000052015
      2        8          -0.000259094    0.001186445    0.000013823
      3        8           0.000178407   -0.003358193   -0.000308091
      4        7           0.000396651    0.004173750    0.000525773
      5        8          -0.000290115   -0.002834358   -0.000283519
 -------------------------------------------------------------------
 Cartesian Forces:  Max     0.004173750 RMS     0.001625371
 -----------------------------------------------------------------------------------------------
                       Internal Coordinate Forces (Hartree/Bohr or radian)
  Cent   Atom   N1       Length/X         N2         Alpha/Y        N3         Beta/Z          J
 -----------------------------------------------------------------------------------------------
      1  H 
      2  O        1  -0.000052(     1)
      3  O        2   0.000268(     2)      1   0.000048(     5)
      4  N        3  -0.000142(     3)      2   0.000364(     6)      1  -0.001523(     8)     0
      5  O        4   0.000254(     4)      3  -0.000075(     7)      2  -0.005867(     9)     0
 -----------------------------------------------------------------------------------------------
 Internal  Forces:  Max     0.005866828 RMS     0.002028674
 Force constants in Cartesian coordinates: 
                1             2             3             4             5 
      1  0.722063D-01
      2 -0.665692D-03  0.602951D-02
      3  0.240809D-01  0.547875D-03  0.436782D+00
      4 -0.519026D-01 -0.326217D-03 -0.473671D-02  0.281043D+00
      5 -0.938481D-04 -0.241145D-02  0.188011D-03 -0.123649D-02  0.121467D-01
      6  0.322161D-01 -0.455692D-03 -0.420580D+00 -0.124200D-01 -0.107814D-02
      7 -0.251354D-01  0.225446D-03 -0.158475D-01 -0.170795D+00  0.121598D-02
      8  0.570919D-03 -0.419535D-02 -0.747254D-03  0.118378D-02 -0.189326D-01
      9 -0.439662D-01  0.488335D-03 -0.198854D-01  0.105705D-01  0.930617D-03
     10 -0.572705D-02  0.200627D-03  0.645169D-02 -0.840805D-01  0.115686D-02
     11 -0.441221D-04  0.800247D-02  0.704127D-03 -0.155164D-03  0.197788D-01
     12 -0.191722D-01 -0.519097D-03  0.119065D-01  0.107133D-01  0.199225D-03
     13  0.105587D-01  0.565836D-03 -0.994839D-02  0.257347D-01 -0.104250D-02
     14  0.232743D-03 -0.742519D-02 -0.692760D-03  0.534089D-03 -0.105815D-01
     15  0.684141D-02 -0.614214D-04 -0.822331D-02 -0.412705D-02 -0.239711D-03
                6             7             8             9            10 
      6  0.522439D+00
      7 -0.910934D-01  0.303770D+00
      8  0.177969D-02 -0.254707D-02  0.410626D-01
      9 -0.964676D-01  0.813203D-01 -0.697521D-02  0.316283D+00
     10  0.402878D-01 -0.143765D+00  0.255696D-02 -0.354481D-01  0.553531D+00
     11 -0.457026D-03  0.350937D-02 -0.478749D-01  0.774437D-03 -0.225745D-01
     12 -0.103645D-01  0.160377D-01  0.766281D-03 -0.252499D-01  0.242578D+00
     13  0.310095D-01  0.359253D-01 -0.176459D-02 -0.124764D-01 -0.319958D+00
     14  0.211166D-03 -0.240372D-02  0.299402D-01  0.478182D-02  0.186600D-01
     15  0.497303D-02  0.958292D-02  0.517648D-02 -0.174680D+00 -0.253869D+00
               11            12            13            14            15 
     11  0.589168D-01
     12 -0.240377D-01  0.447752D+00
     13  0.192644D-01 -0.250157D+00  0.247740D+00
     14 -0.388232D-01  0.235913D-01 -0.170231D-01  0.268896D-01
     15  0.230162D-01 -0.424044D+00  0.241572D+00 -0.278915D-01  0.601974D+00
 Force constants in internal coordinates: 
                1             2             3             4             5 
      1  0.436782D+00
      2  0.220022D-01  0.259168D+00
      3  0.500543D-02  0.173265D-01  0.207559D+00
      4 -0.121866D-01  0.225766D-01  0.148890D+00  0.721412D+00
      5  0.448150D-01  0.565055D-01 -0.240878D-01  0.211512D-01  0.250271D+00
      6  0.115076D-01  0.223027D-01  0.919763D-01  0.961950D-02 -0.869781D-02
      7  0.920896D-02 -0.732832D-01  0.121234D+00  0.117076D+00 -0.224397D-01
      8  0.182075D-02 -0.175295D-02 -0.166284D-02  0.112139D-02 -0.255471D-02
      9  0.285433D-02 -0.515870D-02 -0.343431D-02  0.158175D-02 -0.350129D-02
                6             7             8             9 
      6  0.520579D+00
      7  0.618567D-01  0.662701D+00
      8 -0.361891D-02 -0.280308D-02  0.200925D-01
      9 -0.402652D-02 -0.246276D-02  0.278257D-01  0.107603D+00
 Leave Link  716 at Sun Mar  6 20:02:47 2022, MaxMem= 16106127360 cpu:               1.5 elap:               0.1
 (Enter /sw/contrib/gaussian/g16/B01/g16/l103.exe)

 GradGradGradGradGradGradGradGradGradGradGradGradGradGradGradGradGradGrad
 Berny optimization.
 Search for a local minimum.
 Step number   1 out of a maximum of    2
 All quantities printed in internal units (Hartrees-Bohrs-Radians)
 Second derivative matrix not updated -- analytic derivatives used.
 The second derivative matrix:
                          r1        r2        r3        r4        a1
           r1           0.43678
           r2           0.02200   0.25917
           r3           0.00501   0.01733   0.20756
           r4          -0.01219   0.02258   0.14889   0.72141
           a1           0.04481   0.05651  -0.02409   0.02115   0.25027
           a2           0.01151   0.02230   0.09198   0.00962  -0.00870
           a3           0.00921  -0.07328   0.12123   0.11708  -0.02244
           d1           0.00182  -0.00175  -0.00166   0.00112  -0.00255
           d2           0.00285  -0.00516  -0.00343   0.00158  -0.00350
                          a2        a3        d1        d2
           a2           0.52058
           a3           0.06186   0.66270
           d1          -0.00362  -0.00280   0.02009
           d2          -0.00403  -0.00246   0.02783   0.10760
 ITU=  0
     Eigenvalues ---    0.01196   0.11470   0.12494   0.20350   0.27604
     Eigenvalues ---    0.44943   0.51503   0.60744   0.88313
 Angle between quadratic step and forces=  14.47 degrees.
 Linear search not attempted -- first point.
 Variable       Old X    -DE/DX   Delta X   Delta X   Delta X     New X
                                 (Linear)    (Quad)   (Total)
    r1        1.86209  -0.00005   0.00000   0.00038   0.00038   1.86247
    r2        2.69614   0.00027   0.00000   0.00014   0.00014   2.69628
    r3        2.60992  -0.00014   0.00000  -0.00277  -0.00277   2.60714
    r4        2.25782   0.00025   0.00000   0.00108   0.00108   2.25890
    a1        1.75642   0.00005   0.00000  -0.00102  -0.00102   1.75540
    a2        1.97463   0.00036   0.00000   0.00072   0.00072   1.97535
    a3        1.99550  -0.00007   0.00000  -0.00009  -0.00009   1.99541
    d1        0.00000  -0.00152   0.00000  -0.00073  -0.00073  -0.00073
    d2        0.05421  -0.00587   0.00000  -0.05445  -0.05445  -0.00024
         Item               Value     Threshold  Converged?
 Maximum Force            0.005867     0.000450     NO 
 RMS     Force            0.002029     0.000300     NO 
 Maximum Displacement     0.054450     0.001800     NO 
 RMS     Displacement     0.018184     0.001200     NO 
 Predicted change in Energy=-1.607340D-04
                       ----------------------------
                       ! Non-Optimized Parameters !
                       ! (Angstroms and Degrees)  !
 ----------------------                            ----------------------
 !      Name          Value   Derivative information (Atomic Units)     !
 ------------------------------------------------------------------------
 !       r1          0.9856   -DE/DX =   -0.0001                        !
 !       r2          1.4268   -DE/DX =    0.0003                        !
 !       r3          1.3796   -DE/DX =   -0.0001                        !
 !       r4          1.1954   -DE/DX =    0.0003                        !
 !       a1        100.5772   -DE/DX =    0.0                           !
 !       a2        113.1792   -DE/DX =    0.0004                        !
 !       a3        114.3285   -DE/DX =   -0.0001                        !
 !       d1         -0.0419   -DE/DX =   -0.0015                        !
 !       d2         -0.014    -DE/DX =   -0.0059                        !
 ------------------------------------------------------------------------
 GradGradGradGradGradGradGradGradGradGradGradGradGradGradGradGradGradGrad

 Leave Link  103 at Sun Mar  6 20:02:48 2022, MaxMem= 16106127360 cpu:               1.2 elap:               0.1
 (Enter /sw/contrib/gaussian/g16/B01/g16/l9999.exe)

 ----------------------------------------------------------------------

 Electric dipole moment (input orientation):
 (Debye = 10**-18 statcoulomb cm , SI units = C m)
                  (au)            (Debye)         (10**-30 SI)
   Tot        0.431574D+00      0.109695D+01      0.365904D+01
   x         -0.110361D+00     -0.280509D+00     -0.935677D+00
   y         -0.508918D-02     -0.129354D-01     -0.431478D-01
   z         -0.417194D+00     -0.106040D+01     -0.353712D+01

 Dipole polarizability, Alpha (input orientation).
 (esu units = cm**3 , SI units = C**2 m**2 J**-1)
 Alpha(0;0):
               (au)            (10**-24 esu)      (10**-40 SI)
   iso        0.261304D+02      0.387213D+01      0.430833D+01
   aniso      0.146675D+02      0.217350D+01      0.241834D+01
   xx         0.291727D+02      0.432295D+01      0.480993D+01
   yx         0.336684D-01      0.498914D-02      0.555116D-02
   yy         0.176324D+02      0.261285D+01      0.290719D+01
   zx        -0.399721D+01     -0.592325D+00     -0.659051D+00
   zy        -0.337532D+00     -0.500171D-01     -0.556515D-01
   zz         0.315862D+02      0.468060D+01      0.520787D+01

 ----------------------------------------------------------------------

 Dipole orientation:
     1          0.00000000          0.00000000          0.00000000
     8         -0.47616799          0.02195802         -1.80004679
     8          1.95830687          0.03188868         -2.95867215
     7          3.91571000          0.00853052         -1.23249584
     8          3.25452408         -0.12733230          0.92206654

 Electric dipole moment (dipole orientation):
 (Debye = 10**-18 statcoulomb cm , SI units = C m)
                  (au)            (Debye)         (10**-30 SI)
   Tot        0.431574D+00      0.109695D+01      0.365904D+01
   x          0.000000D+00      0.000000D+00      0.000000D+00
   y          0.000000D+00      0.000000D+00      0.000000D+00
   z          0.431574D+00      0.109695D+01      0.365904D+01

 Dipole polarizability, Alpha (dipole orientation).
 (esu units = cm**3 , SI units = C**2 m**2 J**-1)
 Alpha(0;0):
               (au)            (10**-24 esu)      (10**-40 SI)
   iso        0.261304D+02      0.387213D+01      0.430833D+01
   aniso      0.146675D+02      0.217350D+01      0.241834D+01
   xx         0.313065D+02      0.463914D+01      0.516174D+01
   yx        -0.187819D+00     -0.278319D-01     -0.309672D-01
   yy         0.176421D+02      0.261428D+01      0.290878D+01
   zx         0.406868D+01      0.602916D+00      0.670835D+00
   zy        -0.463217D+00     -0.686416D-01     -0.763741D-01
   zz         0.294428D+02      0.436297D+01      0.485446D+01

 ----------------------------------------------------------------------
 1\1\GINC-N2108\Freq\RMP2-FC\Aug-CC-pVTZ\H1N1O3\CGAVINH\06-Mar-2022\1\\
 #p freq mp2/aug-cc-pvtz density=current\\title\\0,1\H\O,1,r1\O,2,r2,1,
 a1\N,3,r3,2,a2,1,d1,0\O,4,r4,3,a3,2,d2,0\\r1=0.98537664\r2=1.42673666\
 r3=1.38110764\r4=1.19478846\a1=100.6355057\a2=113.13777052\a3=114.3339
 2022\d1=0.\d2=3.10577919\\Version=ES64L-G16RevB.01\State=1-A\HF=-279.5
 063193\MP2=-280.455081\RMSD=6.274e-09\RMSF=1.625e-03\ZeroPoint=0.02342
 42\Thermal=0.0273656\Dipole=-0.1103607,-0.0050892,-0.4171941\DipoleDer
 iv=0.3166113,0.0023561,0.0381775,0.0029986,0.2981624,-0.0002996,-0.024
 0255,-0.0016185,0.1994002,-0.5274197,-0.0052558,0.2805003,-0.0032301,-
 0.2544142,0.0085869,-0.1053206,-0.0020957,-0.1253881,0.0031404,-0.0013
 226,0.3367786,0.008287,-0.0104496,-0.0152393,0.4427845,0.02512,-0.9208
 197,0.199928,-0.010696,-0.1407059,0.0062477,0.0133587,-0.0312722,-0.66
 69487,-0.0377556,1.7166068,0.00774,0.0149183,-0.5147504,-0.0143031,-0.
 0466573,0.0382242,0.3535103,0.0163497,-0.8697991\Polar=29.1727007,0.03
 36684,17.6323795,-3.9972093,-0.3375318,31.5862329\Quadrupole=0.1502353
 ,0.6059298,-0.7561652,0.0404691,1.4067511,0.0712012\PG=C01 [X(H1N1O3)]
 \NImag=0\\0.07220635,-0.00066569,0.00602951,0.02408089,0.00054788,0.43
 678190,-0.05190260,-0.00032622,-0.00473671,0.28104318,-0.00009385,-0.0
 0241145,0.00018801,-0.00123649,0.01214673,0.03221614,-0.00045569,-0.42
 057968,-0.01242003,-0.00107814,0.52243882,-0.02513545,0.00022545,-0.01
 584747,-0.17079477,0.00121598,-0.09109341,0.30376997,0.00057092,-0.004
 19535,-0.00074725,0.00118378,-0.01893256,0.00177969,-0.00254707,0.0410
 6257,-0.04396622,0.00048833,-0.01988535,0.01057048,0.00093062,-0.09646
 765,0.08132027,-0.00697521,0.31628330,-0.00572705,0.00020063,0.0064516
 9,-0.08408052,0.00115686,0.04028781,-0.14376504,0.00255696,-0.03544810
 ,0.55353102,-0.00004412,0.00800247,0.00070413,-0.00015516,0.01977876,-
 0.00045703,0.00350937,-0.04787487,0.00077444,-0.02257449,0.05891679,-0
 .01917221,-0.00051910,0.01190645,0.01071332,0.00019922,-0.01036452,0.0
 1603768,0.00076628,-0.02524989,0.24257779,-0.02403771,0.44775177,0.010
 55875,0.00056584,-0.00994839,0.02573471,-0.00104250,0.03100948,0.03592
 529,-0.00176459,-0.01247642,-0.31995841,0.01926440,-0.25015658,0.24773
 966,0.00023274,-0.00742519,-0.00069276,0.00053409,-0.01058148,0.000211
 17,-0.00240372,0.02994021,0.00478182,0.01866004,-0.03882315,0.02359130
 ,-0.01702315,0.02688961,0.00684141,-0.00006142,-0.00822331,-0.00412705
 ,-0.00023971,0.00497303,0.00958292,0.00517648,-0.17468041,-0.25386919,
 0.02301617,-0.42404381,0.24157191,-0.02789152,0.60197449\\0.00002585,-
 0.00083236,-0.00005201,0.00025909,-0.00118645,-0.00001382,-0.00017841,
 0.00335819,0.00030809,-0.00039665,-0.00417375,-0.00052577,0.00029011,0
 .00283436,0.00028352\\\@


 FROM THE ASHES OF OUR DESPAIR GROW THE FLOWERS OF TOMORROW.
 Job cpu time:       0 days  2 hours  6 minutes  5.5 seconds.
 Elapsed time:       0 days  0 hours  4 minutes 38.2 seconds.
 File lengths (MBytes):  RWF=   7239 Int=      0 D2E=      0 Chk=      8 Scr=      1
 Normal termination of Gaussian 16 at Sun Mar  6 20:02:49 2022.
