 Entering Gaussian System, Link 0=g16
 Input=hoono_a3_115p6769.gjf
 Output=hoono_a3_115p6769.log
 Initial command:
 /sw/contrib/gaussian/g16/B01/g16/l1.exe "/scr/Gau-1932.inp" -scrdir="/scr/"
 Entering Link 1 = /sw/contrib/gaussian/g16/B01/g16/l1.exe PID=      1933.
  
 Copyright (c) 1988-2017, Gaussian, Inc.  All Rights Reserved.
  
 This is part of the Gaussian(R) 16 program.  It is based on
 the Gaussian(R) 09 system (copyright 2009, Gaussian, Inc.),
 the Gaussian(R) 03 system (copyright 2003, Gaussian, Inc.),
 the Gaussian(R) 98 system (copyright 1998, Gaussian, Inc.),
 the Gaussian(R) 94 system (copyright 1995, Gaussian, Inc.),
 the Gaussian 92(TM) system (copyright 1992, Gaussian, Inc.),
 the Gaussian 90(TM) system (copyright 1990, Gaussian, Inc.),
 the Gaussian 88(TM) system (copyright 1988, Gaussian, Inc.),
 the Gaussian 86(TM) system (copyright 1986, Carnegie Mellon
 University), and the Gaussian 82(TM) system (copyright 1983,
 Carnegie Mellon University). Gaussian is a federally registered
 trademark of Gaussian, Inc.
  
 This software contains proprietary and confidential information,
 including trade secrets, belonging to Gaussian, Inc.
  
 This software is provided under written license and may be
 used, copied, transmitted, or stored only in accord with that
 written license.
  
 The following legend is applicable only to US Government
 contracts under FAR:
  
                    RESTRICTED RIGHTS LEGEND
  
 Use, reproduction and disclosure by the US Government is
 subject to restrictions as set forth in subparagraphs (a)
 and (c) of the Commercial Computer Software - Restricted
 Rights clause in FAR 52.227-19.
  
 Gaussian, Inc.
 340 Quinnipiac St., Bldg. 40, Wallingford CT 06492
  
  
 ---------------------------------------------------------------
 Warning -- This program may not be used in any manner that
 competes with the business of Gaussian, Inc. or will provide
 assistance to any competitor of Gaussian, Inc.  The licensee
 of this program is prohibited from giving any competitor of
 Gaussian, Inc. access to this program.  By using this program,
 the user acknowledges that Gaussian, Inc. is engaged in the
 business of creating and licensing software in the field of
 computational chemistry and represents and warrants to the
 licensee that it is not a competitor of Gaussian, Inc. and that
 it will not use this program in any manner prohibited above.
 ---------------------------------------------------------------
  

 Cite this work as:
 Gaussian 16, Revision B.01,
 M. J. Frisch, G. W. Trucks, H. B. Schlegel, G. E. Scuseria, 
 M. A. Robb, J. R. Cheeseman, G. Scalmani, V. Barone, 
 G. A. Petersson, H. Nakatsuji, X. Li, M. Caricato, A. V. Marenich, 
 J. Bloino, B. G. Janesko, R. Gomperts, B. Mennucci, H. P. Hratchian, 
 J. V. Ortiz, A. F. Izmaylov, J. L. Sonnenberg, D. Williams-Young, 
 F. Ding, F. Lipparini, F. Egidi, J. Goings, B. Peng, A. Petrone, 
 T. Henderson, D. Ranasinghe, V. G. Zakrzewski, J. Gao, N. Rega, 
 G. Zheng, W. Liang, M. Hada, M. Ehara, K. Toyota, R. Fukuda, 
 J. Hasegawa, M. Ishida, T. Nakajima, Y. Honda, O. Kitao, H. Nakai, 
 T. Vreven, K. Throssell, J. A. Montgomery, Jr., J. E. Peralta, 
 F. Ogliaro, M. J. Bearpark, J. J. Heyd, E. N. Brothers, K. N. Kudin, 
 V. N. Staroverov, T. A. Keith, R. Kobayashi, J. Normand, 
 K. Raghavachari, A. P. Rendell, J. C. Burant, S. S. Iyengar, 
 J. Tomasi, M. Cossi, J. M. Millam, M. Klene, C. Adamo, R. Cammi, 
 J. W. Ochterski, R. L. Martin, K. Morokuma, O. Farkas, 
 J. B. Foresman, and D. J. Fox, Gaussian, Inc., Wallingford CT, 2016.
 
 ******************************************
 Gaussian 16:  ES64L-G16RevB.01 20-Dec-2017
                 6-Mar-2022 
 ******************************************
 %nproc=28
 Will use up to   28 processors via shared memory.
 %mem=120GB
 %chk=hoono_a3_115p6769.chk
 ---------------------------------------
 #p freq mp2/aug-cc-pvtz density=current
 ---------------------------------------
 1/10=4,30=1,38=1/1,3;
 2/12=2,17=6,18=5,40=1/2;
 3/5=16,6=1,7=10,11=9,25=1,30=1,71=2,140=1/1,2,3;
 4//1;
 5/5=2,38=5,98=1/2;
 8/6=3,8=1,10=1,19=11,30=-1/1;
 9/15=3,16=-3/6;
 11/6=1,8=1,15=11,17=12,24=-1,27=1,28=-2,29=300,32=6,42=3/1,2,10;
 10/6=2,21=1/2;
 8/6=4,8=1,10=1,19=11,30=-1/11,4;
 10/5=1,20=4/2;
 11/12=2,14=11,16=1,17=2,28=-2,42=3,76=2/2,10,12;
 6/7=2,8=2,9=2,10=2,22=-1/1;
 7/8=1,10=1,12=2,25=1,44=2/1,2,3,16;
 1/10=4,30=1/3;
 99//99;
 Leave Link    1 at Sun Mar  6 19:39:55 2022, MaxMem= 16106127360 cpu:               1.8 elap:               0.1
 (Enter /sw/contrib/gaussian/g16/B01/g16/l101.exe)
 -----
 title
 -----
 Symbolic Z-matrix:
 Charge =  0 Multiplicity = 1
 H
 O                    1    r1
 O                    2    r2       1    a1
 N                    3    r3       2    a2       1    d1       0
 O                    4    r4       3    a3       2    d2       0
       Variables:
  r1                    0.98538                  
  r2                    1.42674                  
  r3                    1.38111                  
  r4                    1.19479                  
  a1                  100.63551                  
  a2                  113.13777                  
  a3                  115.67694                  
  d1                    0.                       
  d2                    0.                       
 
 ITRead=  0  0  0  0  0
 MicOpt= -1 -1 -1 -1 -1
 NAtoms=      5 NQM=        5 NQMF=       0 NMMI=      0 NMMIF=      0
                NMic=       0 NMicF=      0.
                    Isotopes and Nuclear Properties:
 (Nuclear quadrupole moments (NQMom) in fm**2, nuclear magnetic moments (NMagM)
  in nuclear magnetons)

  Atom         1           2           3           4           5
 IAtWgt=           1          16          16          14          16
 AtmWgt=   1.0078250  15.9949146  15.9949146  14.0030740  15.9949146
 NucSpn=           1           0           0           2           0
 AtZEff=  -0.0000000  -0.0000000  -0.0000000  -0.0000000  -0.0000000
 NQMom=    0.0000000   0.0000000   0.0000000   2.0440000   0.0000000
 NMagM=    2.7928460   0.0000000   0.0000000   0.4037610   0.0000000
 AtZNuc=   1.0000000   8.0000000   8.0000000   7.0000000   8.0000000
 Leave Link  101 at Sun Mar  6 19:39:55 2022, MaxMem= 16106127360 cpu:               3.3 elap:               0.1
 (Enter /sw/contrib/gaussian/g16/B01/g16/l103.exe)

 GradGradGradGradGradGradGradGradGradGradGradGradGradGradGradGradGradGrad
 Berny optimization.
 Initialization pass.
                       ----------------------------
                       !    Initial Parameters    !
                       ! (Angstroms and Degrees)  !
 ----------------------                            ----------------------
 !      Name          Value   Derivative information (Atomic Units)     !
 ------------------------------------------------------------------------
 !       r1          0.9854   calculate D2E/DX2 analytically            !
 !       r2          1.4267   calculate D2E/DX2 analytically            !
 !       r3          1.3811   calculate D2E/DX2 analytically            !
 !       r4          1.1948   calculate D2E/DX2 analytically            !
 !       a1        100.6355   calculate D2E/DX2 analytically            !
 !       a2        113.1378   calculate D2E/DX2 analytically            !
 !       a3        115.6769   calculate D2E/DX2 analytically            !
 !       d1          0.0      calculate D2E/DX2 analytically            !
 !       d2          0.0      calculate D2E/DX2 analytically            !
 ------------------------------------------------------------------------
 Trust Radius=3.00D-01 FncErr=1.00D-07 GrdErr=1.00D-07 EigMax=2.50D+02 EigMin=1.00D-04
 Number of steps in this run=      2 maximum allowed number of steps=      2.
 GradGradGradGradGradGradGradGradGradGradGradGradGradGradGradGradGradGrad

 Leave Link  103 at Sun Mar  6 19:39:55 2022, MaxMem= 16106127360 cpu:               0.8 elap:               0.1
 (Enter /sw/contrib/gaussian/g16/B01/g16/l202.exe)
                          Input orientation:                          
 ---------------------------------------------------------------------
 Center     Atomic      Atomic             Coordinates (Angstroms)
 Number     Number       Type             X           Y           Z
 ---------------------------------------------------------------------
      1          1           0        0.000000    0.000000    0.000000
      2          8           0        0.000000    0.000000    0.985377
      3          8           0        1.402227    0.000000    1.248696
      4          7           0        2.169996    0.000000    0.100659
      5          8           0        1.562700    0.000000   -0.928279
 ---------------------------------------------------------------------
                    Distance matrix (angstroms):
                    1          2          3          4          5
     1  H    0.000000
     2  O    0.985377   0.000000
     3  O    1.877627   1.426737   0.000000
     4  N    2.172329   2.343418   1.381108   0.000000
     5  O    1.817618   2.470650   2.182881   1.194788   0.000000
 Stoichiometry    HNO3
 Framework group  CS[SG(HNO3)]
 Deg. of freedom     7
 Full point group                 CS      NOp   2
 Largest Abelian subgroup         CS      NOp   2
 Largest concise Abelian subgroup C1      NOp   1
                         Standard orientation:                         
 ---------------------------------------------------------------------
 Center     Atomic      Atomic             Coordinates (Angstroms)
 Number     Number       Type             X           Y           Z
 ---------------------------------------------------------------------
      1          1           0        1.120065   -0.587657   -0.000000
      2          8           0        1.319764    0.377272    0.000000
      3          8           0        0.000000    0.919305    0.000000
      4          7           0       -0.984500   -0.049311   -0.000000
      5          8           0       -0.598334   -1.179972   -0.000000
 ---------------------------------------------------------------------
 Rotational constants (GHZ):          21.5003299           7.9790417           5.8193923
 Leave Link  202 at Sun Mar  6 19:39:55 2022, MaxMem= 16106127360 cpu:               1.3 elap:               0.1
 (Enter /sw/contrib/gaussian/g16/B01/g16/l301.exe)
 Standard basis: Aug-CC-pVTZ (5D, 7F)
 Ernie: Thresh=  0.10000D-02 Tol=  0.10000D-05 Strict=F.
 Ernie:  12 primitive shells out of 131 were deleted.
 There are   166 symmetry adapted cartesian basis functions of A'  symmetry.
 There are    79 symmetry adapted cartesian basis functions of A"  symmetry.
 There are   136 symmetry adapted basis functions of A'  symmetry.
 There are    71 symmetry adapted basis functions of A"  symmetry.
   207 basis functions,   315 primitive gaussians,   245 cartesian basis functions
    16 alpha electrons       16 beta electrons
       nuclear repulsion energy       122.4505602781 Hartrees.
 IExCor=    0 DFT=F Ex=HF Corr=None ExCW=0 ScaHFX=  1.000000
 ScaDFX=  1.000000  1.000000  1.000000  1.000000 ScalE2=  1.000000  1.000000
 IRadAn=      5 IRanWt=     -1 IRanGd=            0 ICorTp=0 IEmpDi=  4
 NAtoms=    5 NActive=    5 NUniq=    5 SFac= 1.00D+00 NAtFMM=   60 NAOKFM=F Big=F
 Integral buffers will be    131072 words long.
 Raffenetti 1 integral format.
 Two-electron integral symmetry is turned on.
 Leave Link  301 at Sun Mar  6 19:39:55 2022, MaxMem= 16106127360 cpu:               1.5 elap:               0.1
 (Enter /sw/contrib/gaussian/g16/B01/g16/l302.exe)
 NPDir=0 NMtPBC=     1 NCelOv=     1 NCel=       1 NClECP=     1 NCelD=      1
         NCelK=      1 NCelE2=     1 NClLst=     1 CellRange=     0.0.
 One-electron integrals computed using PRISM.
 One-electron integral symmetry used in STVInt
 NBasis=   207 RedAO= T EigKep=  1.31D-04  NBF=   136    71
 NBsUse=   207 1.00D-06 EigRej= -1.00D+00 NBFU=   136    71
 Leave Link  302 at Sun Mar  6 19:39:55 2022, MaxMem= 16106127360 cpu:               4.6 elap:               0.2
 (Enter /sw/contrib/gaussian/g16/B01/g16/l303.exe)
 DipDrv:  MaxL=1.
 Leave Link  303 at Sun Mar  6 19:39:55 2022, MaxMem= 16106127360 cpu:               1.7 elap:               0.1
 (Enter /sw/contrib/gaussian/g16/B01/g16/l401.exe)
 ExpMin= 2.53D-02 ExpMax= 1.53D+04 ExpMxC= 5.22D+02 IAcc=3 IRadAn=         5 AccDes= 0.00D+00
 Harris functional with IExCor=  205 and IRadAn=       5 diagonalized for initial guess.
 HarFok:  IExCor=  205 AccDes= 0.00D+00 IRadAn=         5 IDoV= 1 UseB2=F ITyADJ=14
 ICtDFT=  3500011 ScaDFX=  1.000000  1.000000  1.000000  1.000000
 FoFCou: FMM=F IPFlag=           0 FMFlag=      100000 FMFlg1=           0
         NFxFlg=           0 DoJE=T BraDBF=F KetDBF=T FulRan=T
         wScrn=  0.000000 ICntrl=       500 IOpCl=  0 I1Cent=   200000004 NGrid=           0
         NMat0=    1 NMatS0=      1 NMatT0=    0 NMatD0=    1 NMtDS0=    0 NMtDT0=    0
 Petite list used in FoFCou.
 Harris En= -279.644653433576    
 JPrj=0 DoOrth=F DoCkMO=F.
 Initial guess orbital symmetries:
       Occupied  (A') (A') (A') (A') (A') (A') (A') (A') (A') (A')
                 (A") (A') (A") (A') (A") (A')
       Virtual   (A") (A') (A') (A') (A') (A") (A') (A') (A') (A')
                 (A") (A') (A") (A') (A') (A") (A') (A') (A") (A')
                 (A') (A') (A') (A') (A") (A') (A') (A') (A") (A')
                 (A') (A") (A") (A') (A') (A") (A') (A") (A') (A")
                 (A') (A") (A') (A") (A') (A') (A') (A') (A") (A')
                 (A') (A") (A') (A") (A') (A") (A') (A') (A') (A")
                 (A') (A') (A") (A') (A') (A') (A") (A") (A') (A')
                 (A") (A') (A") (A") (A') (A') (A") (A') (A') (A')
                 (A") (A') (A') (A") (A') (A") (A') (A") (A') (A')
                 (A') (A") (A') (A") (A') (A') (A") (A') (A") (A')
                 (A") (A') (A') (A") (A") (A') (A') (A') (A") (A')
                 (A") (A') (A') (A') (A") (A') (A') (A') (A") (A')
                 (A") (A') (A') (A") (A") (A") (A") (A') (A') (A')
                 (A') (A') (A') (A") (A') (A") (A') (A") (A') (A')
                 (A") (A") (A') (A') (A') (A") (A') (A') (A') (A")
                 (A') (A') (A') (A") (A') (A") (A") (A') (A") (A')
                 (A') (A") (A") (A') (A") (A') (A') (A") (A") (A')
                 (A") (A") (A") (A') (A') (A") (A') (A') (A') (A")
                 (A') (A') (A') (A') (A') (A') (A') (A') (A') (A')
                 (A')
 The electronic state of the initial guess is 1-A'.
 Leave Link  401 at Sun Mar  6 19:39:56 2022, MaxMem= 16106127360 cpu:               7.4 elap:               0.3
 (Enter /sw/contrib/gaussian/g16/B01/g16/l502.exe)
 Keep R1 ints in memory in symmetry-blocked form, NReq=348887737.
 FoFCou: FMM=F IPFlag=           0 FMFlag=           0 FMFlg1=           0
         NFxFlg=           0 DoJE=F BraDBF=F KetDBF=F FulRan=T
         wScrn=  0.000000 ICntrl=       600 IOpCl=  0 I1Cent=           0 NGrid=           0
         NMat0=    1 NMatS0=  21528 NMatT0=    0 NMatD0=    1 NMtDS0=    0 NMtDT0=    0
 Petite list used in FoFCou.
 Closed shell SCF:
 Using DIIS extrapolation, IDIIS=  1040.
 NGot= 16106127360 LenX= 15988850015 LenY= 15988789549
 Requested convergence on RMS density matrix=1.00D-08 within 128 cycles.
 Requested convergence on MAX density matrix=1.00D-06.
 Requested convergence on             energy=1.00D-06.
 No special actions if energy rises.

 Cycle   1  Pass 1  IDiag  1:
 E= -279.363921762284    
 DIIS: error= 2.71D-02 at cycle   1 NSaved=   1.
 NSaved= 1 IEnMin= 1 EnMin= -279.363921762284     IErMin= 1 ErrMin= 2.71D-02
 ErrMax= 2.71D-02  0.00D+00 EMaxC= 1.00D-01 BMatC= 4.50D-01 BMatP= 4.50D-01
 IDIUse=3 WtCom= 7.29D-01 WtEn= 2.71D-01
 Coeff-Com:  0.100D+01
 Coeff-En:   0.100D+01
 Coeff:      0.100D+01
 Gap=     0.499 Goal=   None    Shift=    0.000
 GapD=    0.499 DampG=2.000 DampE=0.500 DampFc=1.0000 IDamp=-1.
 RMSDP=1.67D-03 MaxDP=8.55D-02              OVMax= 1.22D-01

 Cycle   2  Pass 1  IDiag  1:
 E= -279.446046508097     Delta-E=       -0.082124745813 Rises=F Damp=F
 DIIS: error= 1.91D-02 at cycle   2 NSaved=   2.
 NSaved= 2 IEnMin= 2 EnMin= -279.446046508097     IErMin= 2 ErrMin= 1.91D-02
 ErrMax= 1.91D-02  0.00D+00 EMaxC= 1.00D-01 BMatC= 8.60D-02 BMatP= 4.50D-01
 IDIUse=3 WtCom= 8.09D-01 WtEn= 1.91D-01
 Coeff-Com:  0.219D+00 0.781D+00
 Coeff-En:   0.760D-01 0.924D+00
 Coeff:      0.191D+00 0.809D+00
 Gap=     0.562 Goal=   None    Shift=    0.000
 RMSDP=9.67D-04 MaxDP=3.69D-02 DE=-8.21D-02 OVMax= 9.08D-02

 Cycle   3  Pass 1  IDiag  1:
 E= -279.483775577477     Delta-E=       -0.037729069379 Rises=F Damp=F
 DIIS: error= 1.12D-02 at cycle   3 NSaved=   3.
 NSaved= 3 IEnMin= 3 EnMin= -279.483775577477     IErMin= 3 ErrMin= 1.12D-02
 ErrMax= 1.12D-02  0.00D+00 EMaxC= 1.00D-01 BMatC= 3.11D-02 BMatP= 8.60D-02
 IDIUse=3 WtCom= 8.88D-01 WtEn= 1.12D-01
 Coeff-Com: -0.347D-01 0.365D+00 0.670D+00
 Coeff-En:   0.000D+00 0.219D+00 0.781D+00
 Coeff:     -0.308D-01 0.349D+00 0.682D+00
 Gap=     0.542 Goal=   None    Shift=    0.000
 RMSDP=4.10D-04 MaxDP=1.55D-02 DE=-3.77D-02 OVMax= 3.93D-02

 Cycle   4  Pass 1  IDiag  1:
 E= -279.505006003788     Delta-E=       -0.021230426311 Rises=F Damp=F
 DIIS: error= 1.68D-03 at cycle   4 NSaved=   4.
 NSaved= 4 IEnMin= 4 EnMin= -279.505006003788     IErMin= 4 ErrMin= 1.68D-03
 ErrMax= 1.68D-03  0.00D+00 EMaxC= 1.00D-01 BMatC= 6.04D-04 BMatP= 3.11D-02
 IDIUse=3 WtCom= 9.83D-01 WtEn= 1.68D-02
 Coeff-Com: -0.120D-01 0.468D-01 0.154D+00 0.811D+00
 Coeff-En:   0.000D+00 0.000D+00 0.000D+00 0.100D+01
 Coeff:     -0.118D-01 0.460D-01 0.151D+00 0.815D+00
 Gap=     0.529 Goal=   None    Shift=    0.000
 RMSDP=9.94D-05 MaxDP=2.31D-03 DE=-2.12D-02 OVMax= 1.18D-02

 Cycle   5  Pass 1  IDiag  1:
 E= -279.505823803378     Delta-E=       -0.000817799590 Rises=F Damp=F
 DIIS: error= 1.09D-03 at cycle   5 NSaved=   5.
 NSaved= 5 IEnMin= 5 EnMin= -279.505823803378     IErMin= 5 ErrMin= 1.09D-03
 ErrMax= 1.09D-03  0.00D+00 EMaxC= 1.00D-01 BMatC= 1.03D-04 BMatP= 6.04D-04
 IDIUse=3 WtCom= 9.89D-01 WtEn= 1.09D-02
 Coeff-Com:  0.540D-02-0.661D-01-0.111D+00 0.597D-01 0.111D+01
 Coeff-En:   0.000D+00 0.000D+00 0.000D+00 0.000D+00 0.100D+01
 Coeff:      0.534D-02-0.654D-01-0.110D+00 0.591D-01 0.111D+01
 Gap=     0.532 Goal=   None    Shift=    0.000
 RMSDP=8.00D-05 MaxDP=2.12D-03 DE=-8.18D-04 OVMax= 1.29D-02

 Cycle   6  Pass 1  IDiag  1:
 E= -279.506187471336     Delta-E=       -0.000363667959 Rises=F Damp=F
 DIIS: error= 3.38D-04 at cycle   6 NSaved=   6.
 NSaved= 6 IEnMin= 6 EnMin= -279.506187471336     IErMin= 6 ErrMin= 3.38D-04
 ErrMax= 3.38D-04  0.00D+00 EMaxC= 1.00D-01 BMatC= 2.39D-05 BMatP= 1.03D-04
 IDIUse=3 WtCom= 9.97D-01 WtEn= 3.38D-03
 Coeff-Com:  0.188D-02-0.696D-02-0.176D-01-0.181D+00 0.107D-01 0.119D+01
 Coeff-En:   0.000D+00 0.000D+00 0.000D+00 0.000D+00 0.000D+00 0.100D+01
 Coeff:      0.187D-02-0.693D-02-0.175D-01-0.181D+00 0.107D-01 0.119D+01
 Gap=     0.533 Goal=   None    Shift=    0.000
 RMSDP=4.67D-05 MaxDP=1.08D-03 DE=-3.64D-04 OVMax= 6.05D-03

 Cycle   7  Pass 1  IDiag  1:
 E= -279.506273167876     Delta-E=       -0.000085696539 Rises=F Damp=F
 DIIS: error= 1.31D-04 at cycle   7 NSaved=   7.
 NSaved= 7 IEnMin= 7 EnMin= -279.506273167876     IErMin= 7 ErrMin= 1.31D-04
 ErrMax= 1.31D-04  0.00D+00 EMaxC= 1.00D-01 BMatC= 3.56D-06 BMatP= 2.39D-05
 IDIUse=3 WtCom= 9.99D-01 WtEn= 1.31D-03
 Coeff-Com: -0.110D-02 0.115D-01 0.251D-01 0.179D-01-0.182D+00-0.159D+00
 Coeff-Com:  0.129D+01
 Coeff-En:   0.000D+00 0.000D+00 0.000D+00 0.000D+00 0.000D+00 0.000D+00
 Coeff-En:   0.100D+01
 Coeff:     -0.110D-02 0.115D-01 0.251D-01 0.179D-01-0.182D+00-0.159D+00
 Coeff:      0.129D+01
 Gap=     0.533 Goal=   None    Shift=    0.000
 RMSDP=1.76D-05 MaxDP=5.13D-04 DE=-8.57D-05 OVMax= 2.32D-03

 Cycle   8  Pass 1  IDiag  1:
 E= -279.506285173100     Delta-E=       -0.000012005224 Rises=F Damp=F
 DIIS: error= 4.70D-05 at cycle   8 NSaved=   8.
 NSaved= 8 IEnMin= 8 EnMin= -279.506285173100     IErMin= 8 ErrMin= 4.70D-05
 ErrMax= 4.70D-05  0.00D+00 EMaxC= 1.00D-01 BMatC= 5.88D-07 BMatP= 3.56D-06
 IDIUse=1 WtCom= 1.00D+00 WtEn= 0.00D+00
 Coeff-Com: -0.552D-03 0.403D-02 0.955D-02 0.246D-01-0.563D-01-0.191D+00
 Coeff-Com:  0.354D+00 0.856D+00
 Coeff:     -0.552D-03 0.403D-02 0.955D-02 0.246D-01-0.563D-01-0.191D+00
 Coeff:      0.354D+00 0.856D+00
 Gap=     0.533 Goal=   None    Shift=    0.000
 RMSDP=5.36D-06 MaxDP=1.53D-04 DE=-1.20D-05 OVMax= 6.34D-04

 Cycle   9  Pass 1  IDiag  1:
 E= -279.506286521121     Delta-E=       -0.000001348022 Rises=F Damp=F
 DIIS: error= 2.45D-05 at cycle   9 NSaved=   9.
 NSaved= 9 IEnMin= 9 EnMin= -279.506286521121     IErMin= 9 ErrMin= 2.45D-05
 ErrMax= 2.45D-05  0.00D+00 EMaxC= 1.00D-01 BMatC= 1.17D-07 BMatP= 5.88D-07
 IDIUse=1 WtCom= 1.00D+00 WtEn= 0.00D+00
 Coeff-Com:  0.241D-03-0.256D-02-0.531D-02-0.559D-02 0.470D-01 0.488D-01
 Coeff-Com: -0.341D+00 0.399D-01 0.122D+01
 Coeff:      0.241D-03-0.256D-02-0.531D-02-0.559D-02 0.470D-01 0.488D-01
 Coeff:     -0.341D+00 0.399D-01 0.122D+01
 Gap=     0.533 Goal=   None    Shift=    0.000
 RMSDP=2.44D-06 MaxDP=6.61D-05 DE=-1.35D-06 OVMax= 2.57D-04

 Cycle  10  Pass 1  IDiag  1:
 E= -279.506286783798     Delta-E=       -0.000000262677 Rises=F Damp=F
 DIIS: error= 5.87D-06 at cycle  10 NSaved=  10.
 NSaved=10 IEnMin=10 EnMin= -279.506286783798     IErMin=10 ErrMin= 5.87D-06
 ErrMax= 5.87D-06  0.00D+00 EMaxC= 1.00D-01 BMatC= 8.27D-09 BMatP= 1.17D-07
 IDIUse=1 WtCom= 1.00D+00 WtEn= 0.00D+00
 Coeff-Com: -0.388D-04 0.501D-03 0.121D-02-0.185D-02-0.111D-01 0.528D-02
 Coeff-Com:  0.738D-01-0.569D-01-0.439D+00 0.143D+01
 Coeff:     -0.388D-04 0.501D-03 0.121D-02-0.185D-02-0.111D-01 0.528D-02
 Coeff:      0.738D-01-0.569D-01-0.439D+00 0.143D+01
 Gap=     0.533 Goal=   None    Shift=    0.000
 RMSDP=7.08D-07 MaxDP=2.57D-05 DE=-2.63D-07 OVMax= 7.58D-05

 Cycle  11  Pass 1  IDiag  1:
 E= -279.506286808747     Delta-E=       -0.000000024949 Rises=F Damp=F
 DIIS: error= 2.22D-06 at cycle  11 NSaved=  11.
 NSaved=11 IEnMin=11 EnMin= -279.506286808747     IErMin=11 ErrMin= 2.22D-06
 ErrMax= 2.22D-06  0.00D+00 EMaxC= 1.00D-01 BMatC= 8.14D-10 BMatP= 8.27D-09
 IDIUse=1 WtCom= 1.00D+00 WtEn= 0.00D+00
 Coeff-Com: -0.154D-04 0.154D-03 0.316D-03 0.903D-03-0.193D-02-0.712D-02
 Coeff-Com:  0.173D-01 0.197D-01-0.395D-01-0.345D+00 0.136D+01
 Coeff:     -0.154D-04 0.154D-03 0.316D-03 0.903D-03-0.193D-02-0.712D-02
 Coeff:      0.173D-01 0.197D-01-0.395D-01-0.345D+00 0.136D+01
 Gap=     0.533 Goal=   None    Shift=    0.000
 RMSDP=2.42D-07 MaxDP=8.99D-06 DE=-2.49D-08 OVMax= 2.83D-05

 Cycle  12  Pass 1  IDiag  1:
 E= -279.506286811685     Delta-E=       -0.000000002938 Rises=F Damp=F
 DIIS: error= 6.84D-07 at cycle  12 NSaved=  12.
 NSaved=12 IEnMin=12 EnMin= -279.506286811685     IErMin=12 ErrMin= 6.84D-07
 ErrMax= 6.84D-07  0.00D+00 EMaxC= 1.00D-01 BMatC= 8.33D-11 BMatP= 8.14D-10
 IDIUse=1 WtCom= 1.00D+00 WtEn= 0.00D+00
 Coeff-Com:  0.272D-05-0.461D-04-0.984D-04 0.114D-03 0.113D-02-0.625D-03
 Coeff-Com: -0.734D-02 0.626D-02 0.400D-01-0.106D+00-0.192D+00 0.126D+01
 Coeff:      0.272D-05-0.461D-04-0.984D-04 0.114D-03 0.113D-02-0.625D-03
 Coeff:     -0.734D-02 0.626D-02 0.400D-01-0.106D+00-0.192D+00 0.126D+01
 Gap=     0.533 Goal=   None    Shift=    0.000
 RMSDP=8.25D-08 MaxDP=2.69D-06 DE=-2.94D-09 OVMax= 9.54D-06

 Cycle  13  Pass 1  IDiag  1:
 E= -279.506286811975     Delta-E=       -0.000000000290 Rises=F Damp=F
 DIIS: error= 1.65D-07 at cycle  13 NSaved=  13.
 NSaved=13 IEnMin=13 EnMin= -279.506286811975     IErMin=13 ErrMin= 1.65D-07
 ErrMax= 1.65D-07  0.00D+00 EMaxC= 1.00D-01 BMatC= 6.92D-12 BMatP= 8.33D-11
 IDIUse=1 WtCom= 1.00D+00 WtEn= 0.00D+00
 Coeff-Com:  0.124D-05-0.113D-04-0.160D-04-0.118D-03 0.308D-04 0.908D-03
 Coeff-Com: -0.930D-03-0.249D-02-0.265D-02 0.549D-01-0.127D+00-0.151D+00
 Coeff-Com:  0.123D+01
 Coeff:      0.124D-05-0.113D-04-0.160D-04-0.118D-03 0.308D-04 0.908D-03
 Coeff:     -0.930D-03-0.249D-02-0.265D-02 0.549D-01-0.127D+00-0.151D+00
 Coeff:      0.123D+01
 Gap=     0.533 Goal=   None    Shift=    0.000
 RMSDP=2.18D-08 MaxDP=6.43D-07 DE=-2.90D-10 OVMax= 1.99D-06

 Cycle  14  Pass 1  IDiag  1:
 E= -279.506286811996     Delta-E=       -0.000000000021 Rises=F Damp=F
 DIIS: error= 4.05D-08 at cycle  14 NSaved=  14.
 NSaved=14 IEnMin=14 EnMin= -279.506286811996     IErMin=14 ErrMin= 4.05D-08
 ErrMax= 4.05D-08  0.00D+00 EMaxC= 1.00D-01 BMatC= 4.79D-13 BMatP= 6.92D-12
 IDIUse=1 WtCom= 1.00D+00 WtEn= 0.00D+00
 Coeff-Com: -0.308D-06 0.453D-05 0.895D-05-0.286D-05-0.112D-03 0.523D-04
 Coeff-Com:  0.650D-03-0.318D-03-0.354D-02 0.774D-02 0.169D-01-0.903D-01
 Coeff-Com: -0.175D-01 0.109D+01
 Coeff:     -0.308D-06 0.453D-05 0.895D-05-0.286D-05-0.112D-03 0.523D-04
 Coeff:      0.650D-03-0.318D-03-0.354D-02 0.774D-02 0.169D-01-0.903D-01
 Coeff:     -0.175D-01 0.109D+01
 Gap=     0.533 Goal=   None    Shift=    0.000
 RMSDP=4.28D-09 MaxDP=1.07D-07 DE=-2.06D-11 OVMax= 4.45D-07

 SCF Done:  E(RHF) =  -279.506286812     A.U. after   14 cycles
            NFock= 14  Conv=0.43D-08     -V/T= 2.0023
 KE= 2.788749718398D+02 PE=-9.057515835959D+02 EE= 2.249197646661D+02
 Leave Link  502 at Sun Mar  6 19:39:59 2022, MaxMem= 16106127360 cpu:              55.8 elap:               3.6
 (Enter /sw/contrib/gaussian/g16/B01/g16/l801.exe)
 ExpMin= 2.53D-02 ExpMax= 1.53D+04 ExpMxC= 5.22D+02 IAcc=3 IRadAn=         5 AccDes= 0.00D+00
 HarFok:  IExCor=  205 AccDes= 0.00D+00 IRadAn=         5 IDoV=-2 UseB2=F ITyADJ=14
 ICtDFT= 12500011 ScaDFX=  1.000000  1.000000  1.000000  1.000000
 Largest valence mixing into a core orbital is  2.07D-04
 Largest core mixing into a valence orbital is  3.08D-05
 Range of M.O.s used for correlation:     5   207
 NBasis=   207 NAE=    16 NBE=    16 NFC=     4 NFV=     0
 NROrb=    203 NOA=    12 NOB=    12 NVA=   191 NVB=   191

 **** Warning!!: The largest alpha MO coefficient is  0.15833139D+02

 Leave Link  801 at Sun Mar  6 19:39:59 2022, MaxMem= 16106127360 cpu:               2.4 elap:               0.1
 (Enter /sw/contrib/gaussian/g16/B01/g16/l906.exe)
 Frozen-core derivative calculation, NFC=   4 NFV=   0.
 FulOut=F Deriv=T AODrv=T NAtomX=     5
   MMem=           0  MDisk=          12 MDiskD=          12
  W3Min=      811440 MinDsk=     2425030 NBas6D=         245
 NBas2D=       30762    NTT=       30135    LW2=     7400000
    MDV= 16105571588 MDiskM=      328644 NBas2p=       30759
 Disk-based method using ON**2 memory for 12 occupieds at a time.
 Permanent disk used for amplitudes=    11516536 words.
 Estimated scratch disk usage=   321863743 words.
 IMap=   1   2   3   4   5   6   7   8   9  10  11  12  13  14  15  16
 Actual    scratch disk usage=   310892607 words.
 JobTyp=1 Pass  1:  I=   5 to  16 NPSUse= 28 ParTrn=T ParDer=T DoDerP=T.
 (rs|ai) integrals will be sorted in core.
 Spin components of T(2) and E(2):
     alpha-alpha T2 =       0.3480496151D-01 E2=     -0.1245090831D+00
     alpha-beta  T2 =       0.1846259056D+00 E2=     -0.6997537731D+00
     beta-beta   T2 =       0.3480496151D-01 E2=     -0.1245090831D+00
 The integrals were generated   1 times.
 ANorm=    0.1119926707D+01
 E2 =    -0.9487719392D+00 EUMP2 =    -0.28045505875124D+03
 Leave Link  906 at Sun Mar  6 19:41:36 2022, MaxMem= 16106127360 cpu:            2716.0 elap:              97.1
 (Enter /sw/contrib/gaussian/g16/B01/g16/l1101.exe)
 Using compressed Sx but separate Hx and Fx, NAtomX=     5.
 Will process      6 centers per pass.
 Leave Link 1101 at Sun Mar  6 19:41:37 2022, MaxMem= 16106127360 cpu:               5.2 elap:               0.2
 (Enter /sw/contrib/gaussian/g16/B01/g16/l1102.exe)
 Leave Link 1102 at Sun Mar  6 19:41:37 2022, MaxMem= 16106127360 cpu:               0.7 elap:               0.0
 (Enter /sw/contrib/gaussian/g16/B01/g16/l1110.exe)
 Forming Gx(P) for the SCF density, NAtomX=     5.
 Integral derivatives from FoFJK, PRISM(SPDF).
 Do as many integral derivatives as possible in FoFJK.
 G2DrvN: MDV=   16106126844.
 G2DrvN: will do     6 centers at a time, making    1 passes.
 Calling FoFCou, ICntrl=  3107 FMM=F I1Cent=   0 AccDes= 0.00D+00.
 FoFJK:  IHMeth= 1 ICntrl=    3107 DoSepK=F KAlg= 0 I1Cent=           0 FoldK=F
 IRaf=         0 NMat=       1 IRICut=       1 DoRegI=T DoRafI=F ISym2E= 1 IDoP0=0 IntGTp=1.
 FoFCou: FMM=F IPFlag=           0 FMFlag=      100000 FMFlg1=           0
         NFxFlg=           0 DoJE=F BraDBF=F KetDBF=F FulRan=T
         wScrn=  0.000000 ICntrl=      3107 IOpCl=  0 I1Cent=           0 NGrid=           0
         NMat0=    1 NMatS0=      1 NMatT0=    0 NMatD0=    1 NMtDS0=    0 NMtDT0=    0
 Petite list used in FoFCou.
 End of G2Drv F.D. properties file   721 does not exist.
 End of G2Drv F.D. properties file   722 does not exist.
 End of G2Drv F.D. properties file   788 does not exist.
 Leave Link 1110 at Sun Mar  6 19:41:40 2022, MaxMem= 16106127360 cpu:              87.3 elap:               3.1
 (Enter /sw/contrib/gaussian/g16/B01/g16/l1002.exe)
 Minotr:  Closed shell wavefunction.
          IDoAtm=11111
          Frozen-core window.
          Direct CPHF calculation.
          Differentiating once with respect to electric field.
                with respect to dipole field.
          Differentiating once with respect to nuclear coordinates.
          Requested convergence is 1.0D-08 RMS, and 1.0D-07 maximum.
          Secondary convergence is 1.0D-12 RMS, and 1.0D-12 maximum.
          NewPWx=T KeepS1=T KeepF1=T KeepIn=T MapXYZ=F SortEE=F KeepMc=T.
 Keep R1 ints in memory in symmetry-blocked form, NReq=348888983.
 FoFCou: FMM=F IPFlag=           0 FMFlag=           0 FMFlg1=           0
         NFxFlg=           0 DoJE=F BraDBF=F KetDBF=F FulRan=T
         wScrn=  0.000000 ICntrl=       600 IOpCl=  0 I1Cent=           0 NGrid=           0
         NMat0=    1 NMatS0=  21528 NMatT0=    0 NMatD0=    1 NMtDS0=    0 NMtDT0=    0
 Petite list used in FoFCou.
          MDV=   16106127360 using IRadAn=       1.
          Solving linear equations simultaneously, MaxMat=       0.
          There are    18 degrees of freedom in the 1st order CPHF.  IDoFFX=6 NUNeed=    18.
     15 vectors produced by pass  0 Test12= 1.70D-14 5.56D-09 XBig12= 7.97D+00 1.23D+00.
 AX will form    15 AO Fock derivatives at one time.
     15 vectors produced by pass  1 Test12= 1.70D-14 5.56D-09 XBig12= 1.37D+00 2.03D-01.
     15 vectors produced by pass  2 Test12= 1.70D-14 5.56D-09 XBig12= 6.77D-02 5.82D-02.
     15 vectors produced by pass  3 Test12= 1.70D-14 5.56D-09 XBig12= 1.98D-03 1.10D-02.
     15 vectors produced by pass  4 Test12= 1.70D-14 5.56D-09 XBig12= 4.39D-05 1.22D-03.
     15 vectors produced by pass  5 Test12= 1.70D-14 5.56D-09 XBig12= 6.07D-07 1.21D-04.
     15 vectors produced by pass  6 Test12= 1.70D-14 5.56D-09 XBig12= 4.57D-09 1.19D-05.
     14 vectors produced by pass  7 Test12= 1.70D-14 5.56D-09 XBig12= 3.33D-11 7.82D-07.
      3 vectors produced by pass  8 Test12= 1.70D-14 5.56D-09 XBig12= 2.28D-13 6.15D-08.
      1 vectors produced by pass  9 Test12= 1.70D-14 5.56D-09 XBig12= 1.55D-15 6.27D-09.
 InvSVY:  IOpt=1 It=  1 EMax= 8.88D-16
 Solved reduced A of dimension   123 with    15 vectors.
 FullF1:  Do perturbations      1 to      18.
 Saving first derivative matrices.
 End of Minotr F.D. properties file   721 does not exist.
 End of Minotr F.D. properties file   722 does not exist.
 End of Minotr F.D. properties file   788 does not exist.
 Leave Link 1002 at Sun Mar  6 19:41:43 2022, MaxMem= 16106127360 cpu:              80.9 elap:               3.0
 (Enter /sw/contrib/gaussian/g16/B01/g16/l811.exe)
 MDV= 16106127360.
 Form MO integral derivatives with frozen-active canonical formalism.
 MOERI=1 MOERIx=1 NAtoms=     5 NAtomX=     5.
 Discarding MO integrals.
 MO basis two electron integral derivatives will not be stored on disk.
 IAlg= 3 DoFC=T DoPWx=T Debug=F.
 Frozen-core window:  NFC=   4 NFV=   0.
 Reordered first order wavefunction length =     18678272
 In DefCFB: NBatch=  1 ICI= 16 ICA=191 LFMax= 96
            Large arrays: LIAPS=   619940160 LIARS=   288257200 words.
 In StABat: MaxSiz= 55 MinSiz= 25 NAtomB=  5
 DoIAMN: NPSUse= 28.
 Leave Link  811 at Sun Mar  6 19:43:03 2022, MaxMem= 16106127360 cpu:            2245.0 elap:              80.3
 (Enter /sw/contrib/gaussian/g16/B01/g16/l804.exe)
 Frozen-core window:  NFC=   4 NFV=   0.
 Closed-shell transformation, MDV= 16106127360 ITran=4 ISComp=1.
 Semi-Direct transformation.
 ModeAB=           2 MOrb=            16 LenV=   16104920009
 LASXX=     67341636 LTotXX=    67341636 LenRXX=    67341636
 LTotAB=    68301760 MaxLAS=    99807120 LenRXY=    99807120
 NonZer=   134683272 LenScr=   202817536 LnRSAI=           0
 LnScr1=           0 LExtra=           0 Total=    369966292
 MaxDsk=          -1 SrtSym=           F ITran=            4
 DoSDTr:  NPSUse= 28
 JobTyp=0 Pass  1:  I=   1 to  16.
 (rs|ai) integrals will be sorted in core.
 Complete sort for first half transformation.
 First half transformation complete.
 Begin second half transformation for I=  10.
 Begin second half transformation for I=  10.
 Complete sort for second half transformation.
 Second half transformation complete.
 Spin components of T(2) and E(2):
     alpha-alpha T2 =       0.3480496151D-01 E2=     -0.1245090831D+00
     alpha-beta  T2 =       0.1846259056D+00 E2=     -0.6997537731D+00
     beta-beta   T2 =       0.3480496151D-01 E2=     -0.1245090831D+00
 ANorm=    0.1583815538D+01
 E2 =    -0.9487719392D+00 EUMP2 =    -0.28045505875124D+03
 Leave Link  804 at Sun Mar  6 19:43:19 2022, MaxMem= 16106127360 cpu:             436.3 elap:              15.6
 (Enter /sw/contrib/gaussian/g16/B01/g16/l1002.exe)
 Minotr:  Closed shell wavefunction.
          Computing MP2/KS-MP2 derivatives.
          Using Z-Vector for PSCF gradient.
          Skipping F1 and S1 gradient terms here.
          IDoAtm=11111
          Frozen-core window.
          Using MO integrals in the linear equations.
          Forming densities via direct SCF.
          Differentiating once with respect to electric field.
                with respect to dipole field.
          Differentiating once with respect to nuclear coordinates.
          Using symmetry in CPHF.
          Requested convergence is 1.0D-10 RMS, and 1.0D-09 maximum.
          NewPWx=F KeepS1=T KeepF1=T KeepIn=T MapXYZ=F SortEE=F KeepMc=T.
          MDV=   16106127360 using IRadAn=       5.
          Solving linear equations separately, MaxMat=       0.
          There are     1 degrees of freedom in the 1st order CPHF.  IDoFFX=0 NUNeed=     1.
 FoFJK:  IHMeth= 1 ICntrl=       0 DoSepK=F KAlg= 0 I1Cent=           0 FoldK=F
 IRaf=         0 NMat=       1 IRICut=       1 DoRegI=T DoRafI=F ISym2E= 0 IDoP0=0 IntGTp=1.
 FoFCou: FMM=F IPFlag=           0 FMFlag=      100000 FMFlg1=           0
         NFxFlg=           0 DoJE=F BraDBF=F KetDBF=F FulRan=T
         wScrn=  0.000000 ICntrl=         0 IOpCl=  0 I1Cent=           0 NGrid=           0
         NMat0=    1 NMatS0=      1 NMatT0=    0 NMatD0=    1 NMtDS0=    0 NMtDT0=    0
 Symmetry not used in FoFCou.
 LinEq1:  Iter=  0 NonCon=     1 RMS=6.60D-03 Max=1.68D-01 NDo=     1
 LinEq1:  Iter=  1 NonCon=     1 RMS=2.00D-03 Max=3.10D-02 NDo=     1
 LinEq1:  Iter=  2 NonCon=     1 RMS=8.88D-04 Max=1.43D-02 NDo=     1
 LinEq1:  Iter=  3 NonCon=     1 RMS=3.82D-04 Max=8.20D-03 NDo=     1
 LinEq1:  Iter=  4 NonCon=     1 RMS=1.38D-04 Max=1.68D-03 NDo=     1
 LinEq1:  Iter=  5 NonCon=     1 RMS=7.69D-05 Max=1.38D-03 NDo=     1
 LinEq1:  Iter=  6 NonCon=     1 RMS=2.44D-05 Max=2.98D-04 NDo=     1
 LinEq1:  Iter=  7 NonCon=     1 RMS=8.13D-06 Max=1.08D-04 NDo=     1
 LinEq1:  Iter=  8 NonCon=     1 RMS=3.96D-06 Max=6.15D-05 NDo=     1
 LinEq1:  Iter=  9 NonCon=     1 RMS=1.03D-06 Max=1.21D-05 NDo=     1
 LinEq1:  Iter= 10 NonCon=     1 RMS=2.30D-07 Max=2.85D-06 NDo=     1
 LinEq1:  Iter= 11 NonCon=     1 RMS=4.89D-08 Max=7.86D-07 NDo=     1
 LinEq1:  Iter= 12 NonCon=     1 RMS=1.14D-08 Max=1.66D-07 NDo=     1
 LinEq1:  Iter= 13 NonCon=     1 RMS=2.03D-09 Max=2.61D-08 NDo=     1
 LinEq1:  Iter= 14 NonCon=     1 RMS=4.24D-10 Max=5.80D-09 NDo=     1
 LinEq1:  Iter= 15 NonCon=     0 RMS=8.73D-11 Max=8.66D-10 NDo=     1
 Linear equations converged to 1.000D-10 1.000D-09 after    15 iterations.
 End of Minotr F.D. properties file   721 does not exist.
 End of Minotr F.D. properties file   722 does not exist.
 End of Minotr F.D. properties file   788 does not exist.
 Leave Link 1002 at Sun Mar  6 19:43:22 2022, MaxMem= 16106127360 cpu:              67.8 elap:               2.5
 (Enter /sw/contrib/gaussian/g16/B01/g16/l1102.exe)
 Use density number 2.
 Symmetrizing basis deriv contribution to polar:
 IMax=3 JMax=2 DiffMx= 0.00D+00
 Leave Link 1102 at Sun Mar  6 19:43:22 2022, MaxMem= 16106127360 cpu:               2.2 elap:               0.1
 (Enter /sw/contrib/gaussian/g16/B01/g16/l1110.exe)
 Forming Gx(P) for generalized density number  2 NAtomX=     5.
 Integral derivatives from FoFJK, PRISM(SPDF).
 Do as many integral derivatives as possible in FoFJK.
 G2DrvN: MDV=   16106126844.
 G2DrvN: will do     6 centers at a time, making    1 passes.
 Calling FoFCou, ICntrl=  3107 FMM=F I1Cent=   0 AccDes= 0.00D+00.
 FoFJK:  IHMeth= 1 ICntrl=    3107 DoSepK=F KAlg= 0 I1Cent=           0 FoldK=F
 IRaf=         0 NMat=       1 IRICut=       1 DoRegI=T DoRafI=F ISym2E= 1 IDoP0=0 IntGTp=1.
 FoFCou: FMM=F IPFlag=           0 FMFlag=      100000 FMFlg1=           0
         NFxFlg=           0 DoJE=F BraDBF=F KetDBF=F FulRan=T
         wScrn=  0.000000 ICntrl=      3107 IOpCl=  0 I1Cent=           0 NGrid=           0
         NMat0=    1 NMatS0=      1 NMatT0=    0 NMatD0=    1 NMtDS0=    0 NMtDT0=    0
 Petite list used in FoFCou.
 End of G2Drv F.D. properties file   721 does not exist.
 End of G2Drv F.D. properties file   722 does not exist.
 End of G2Drv F.D. properties file   788 does not exist.
 Leave Link 1110 at Sun Mar  6 19:43:26 2022, MaxMem= 16106127360 cpu:             107.4 elap:               3.9
 (Enter /sw/contrib/gaussian/g16/B01/g16/l1112.exe)
 MP22nd: MDV=   16106127360
 This link is doing NAtomX=     5 total of    18 degrees of freedom.
 Using ON3 I/O method in MakUI.
 Frozen-core window:  NFC=   4 NFV=   0.
 Using Ix for Sx.
 Use MO integrals over full window.
 Using OV2 memory method for fx*t*t/D, MaxI=    16 DoOO2=F NP=  28.
 R2 and R3 integrals will be kept in memory, NReq=   915591705.
 FoFCou: FMM=F IPFlag=           0 FMFlag=           0 FMFlg1=           0
         NFxFlg=           0 DoJE=F BraDBF=F KetDBF=F FulRan=T
         wScrn=  0.000000 ICntrl=       600 IOpCl=  0 I1Cent=           0 NGrid=           0
         NMat0=    1 NMatS0=      1 NMatT0=    0 NMatD0=    1 NMtDS0=    0 NMtDT0=    0
 Symmetry not used in FoFCou.
 DD1Dir will call FoFMem   1 times, MxPair=       272
 NAB=   136 NAA=     0 NBB=     0.
 Symmetry is being used.
 FoFJK:  IHMeth= 1 ICntrl=       0 DoSepK=F KAlg= 0 I1Cent=           0 FoldK=F
 IRaf=         0 NMat=      18 IRICut=      45 DoRegI=T DoRafI=T ISym2E= 2 IDoP0=3 IntGTp=3.
 Discarding MO integrals.
 Leave Link 1112 at Sun Mar  6 19:44:00 2022, MaxMem= 16106127360 cpu:             951.8 elap:              34.3
 (Enter /sw/contrib/gaussian/g16/B01/g16/l601.exe)
 Copying SCF densities to generalized density rwf, IOpCl= 0 IROHF=0.

 **********************************************************************

            Population analysis using the MP2 Density.

 **********************************************************************

 Orbital symmetries:
       Occupied  (A') (A') (A') (A') (A') (A') (A') (A') (A') (A')
                 (A") (A') (A') (A") (A') (A")
       Virtual   (A') (A") (A') (A') (A") (A') (A') (A') (A") (A')
                 (A") (A') (A') (A') (A") (A') (A') (A") (A') (A')
                 (A') (A') (A') (A') (A") (A') (A') (A") (A') (A')
                 (A') (A") (A") (A') (A') (A') (A") (A') (A") (A')
                 (A") (A") (A') (A') (A") (A') (A') (A") (A') (A')
                 (A') (A") (A') (A') (A") (A') (A") (A') (A") (A')
                 (A') (A') (A") (A') (A') (A') (A") (A") (A') (A')
                 (A") (A') (A") (A") (A') (A') (A") (A') (A') (A')
                 (A") (A') (A') (A") (A') (A") (A") (A') (A') (A')
                 (A') (A') (A") (A") (A') (A') (A") (A") (A') (A')
                 (A") (A') (A") (A') (A") (A') (A') (A') (A") (A')
                 (A") (A') (A') (A') (A") (A') (A') (A') (A") (A')
                 (A") (A') (A") (A') (A") (A") (A') (A") (A') (A')
                 (A') (A') (A") (A') (A') (A") (A") (A') (A') (A')
                 (A") (A") (A') (A') (A') (A") (A') (A') (A') (A")
                 (A') (A') (A') (A") (A") (A') (A") (A') (A') (A")
                 (A') (A") (A') (A") (A") (A') (A') (A") (A") (A')
                 (A") (A") (A") (A') (A') (A") (A') (A') (A') (A")
                 (A') (A') (A') (A') (A') (A') (A') (A') (A') (A')
                 (A')
 The electronic state is 1-A'.
 Alpha  occ. eigenvalues --  -20.72117 -20.68790 -20.66913 -15.82516  -1.64264
 Alpha  occ. eigenvalues --   -1.50699  -1.29436  -0.96078  -0.83299  -0.75865
 Alpha  occ. eigenvalues --   -0.73976  -0.63923  -0.61997  -0.61925  -0.50231
 Alpha  occ. eigenvalues --   -0.49825
 Alpha virt. eigenvalues --    0.03495   0.06101   0.09510   0.10058   0.11975
 Alpha virt. eigenvalues --    0.12269   0.14887   0.15182   0.17773   0.18037
 Alpha virt. eigenvalues --    0.18952   0.21112   0.21674   0.24261   0.24636
 Alpha virt. eigenvalues --    0.26813   0.31109   0.31528   0.33809   0.34261
 Alpha virt. eigenvalues --    0.34613   0.39264   0.44662   0.48854   0.50441
 Alpha virt. eigenvalues --    0.51911   0.54394   0.56243   0.59932   0.62094
 Alpha virt. eigenvalues --    0.63976   0.68917   0.71743   0.72374   0.73866
 Alpha virt. eigenvalues --    0.76521   0.76765   0.79565   0.80438   0.84031
 Alpha virt. eigenvalues --    0.84316   0.85076   0.88466   0.90654   0.92679
 Alpha virt. eigenvalues --    0.94898   0.95476   1.01782   1.03158   1.05391
 Alpha virt. eigenvalues --    1.06488   1.09266   1.14217   1.15560   1.17241
 Alpha virt. eigenvalues --    1.22018   1.22654   1.24621   1.35015   1.36433
 Alpha virt. eigenvalues --    1.37054   1.46921   1.48344   1.50740   1.54102
 Alpha virt. eigenvalues --    1.58971   1.59621   1.60513   1.62823   1.69578
 Alpha virt. eigenvalues --    1.74008   1.80164   1.82801   1.88712   1.89653
 Alpha virt. eigenvalues --    1.92646   1.98043   1.99155   2.04863   2.12051
 Alpha virt. eigenvalues --    2.13009   2.16389   2.18560   2.24163   2.25967
 Alpha virt. eigenvalues --    2.29475   2.35185   2.36101   2.38617   2.40197
 Alpha virt. eigenvalues --    2.43362   2.47055   2.47829   2.52592   2.53740
 Alpha virt. eigenvalues --    2.54491   2.55636   2.61143   2.62693   2.66943
 Alpha virt. eigenvalues --    2.67053   2.75637   2.80830   2.80961   2.84301
 Alpha virt. eigenvalues --    2.91633   2.97518   3.04885   3.05483   3.11480
 Alpha virt. eigenvalues --    3.11830   3.17197   3.21259   3.30549   3.33514
 Alpha virt. eigenvalues --    3.36013   3.48245   3.67695   3.86866   3.92348
 Alpha virt. eigenvalues --    4.17958   4.21483   4.21767   4.26526   4.36449
 Alpha virt. eigenvalues --    4.50155   4.50780   4.55997   4.60047   4.69125
 Alpha virt. eigenvalues --    4.80772   4.90490   4.91209   4.94417   4.99487
 Alpha virt. eigenvalues --    5.00452   5.10847   5.13510   5.17602   5.24740
 Alpha virt. eigenvalues --    5.25455   5.31550   5.33635   5.35282   5.54167
 Alpha virt. eigenvalues --    5.64240   5.70075   5.88325   6.00278   6.26390
 Alpha virt. eigenvalues --    6.29591   6.35880   6.37613   6.59885   6.64664
 Alpha virt. eigenvalues --    6.65782   6.68335   6.72275   6.80664   6.80729
 Alpha virt. eigenvalues --    6.83785   6.97012   7.01848   7.06610   7.08058
 Alpha virt. eigenvalues --    7.14094   7.16159   7.17537   7.20245   7.24384
 Alpha virt. eigenvalues --    7.24423   7.26932   7.34792   7.39604   7.42170
 Alpha virt. eigenvalues --    7.44269   7.46143   7.55996   7.65069   7.66367
 Alpha virt. eigenvalues --    7.79439   7.88184   7.95286   8.05284   8.30401
 Alpha virt. eigenvalues --    8.50307   8.65263  13.60914  14.76230  15.09783
 Alpha virt. eigenvalues --   15.72811
          Condensed to atoms (all electrons):
               1          2          3          4          5
     1  H    0.577414   0.125839   0.023595  -0.000446  -0.004872
     2  O    0.125839   8.388706  -0.232335  -0.000474  -0.007583
     3  O    0.023595  -0.232335   8.370952  -0.169938  -0.029933
     4  N   -0.000446  -0.000474  -0.169938   7.136867  -0.120558
     5  O   -0.004872  -0.007583  -0.029933  -0.120558   8.359474
 Mulliken charges:
               1
     1  H    0.278470
     2  O   -0.274152
     3  O    0.037660
     4  N    0.154548
     5  O   -0.196527
 Sum of Mulliken charges =  -0.00000
 Mulliken charges with hydrogens summed into heavy atoms:
               1
     2  O    0.004319
     3  O    0.037660
     4  N    0.154548
     5  O   -0.196527
 APT charges:
               1
     1  H    0.269020
     2  O   -0.303008
     3  O   -0.309343
     4  N    0.647644
     5  O   -0.304313
 Sum of APT charges =  -0.00000
 APT charges with hydrogens summed into heavy atoms:
               1
     2  O   -0.033987
     3  O   -0.309343
     4  N    0.647644
     5  O   -0.304313
 Electronic spatial extent (au):  <R**2>=            208.7554
 Charge=             -0.0000 electrons
 Dipole moment (field-independent basis, Debye):
    X=              0.0837    Y=             -1.0961    Z=             -0.0000  Tot=              1.0992
 Quadrupole moment (field-independent basis, Debye-Ang):
   XX=            -23.4072   YY=            -22.9524   ZZ=            -21.9385
   XY=             -1.9626   XZ=             -0.0000   YZ=             -0.0000
 Traceless Quadrupole moment (field-independent basis, Debye-Ang):
   XX=             -0.6412   YY=             -0.1863   ZZ=              0.8275
   XY=             -1.9626   XZ=             -0.0000   YZ=             -0.0000
 Octapole moment (field-independent basis, Debye-Ang**2):
  XXX=              2.6321  YYY=              0.3328  ZZZ=             -0.0000  XYY=              2.3098
  XXY=             -2.8575  XXZ=             -0.0000  XZZ=             -0.5902  YZZ=             -0.7129
  YYZ=              0.0000  XYZ=              0.0000
 Hexadecapole moment (field-independent basis, Debye-Ang**3):
 XXXX=           -127.5325 YYYY=            -95.8762 ZZZZ=            -18.0535 XXXY=            -22.3267
 XXXZ=             -0.0000 YYYX=            -20.3513 YYYZ=             -0.0000 ZZZX=             -0.0000
 ZZZY=             -0.0000 XXYY=            -35.9650 XXZZ=            -24.4380 YYZZ=            -18.7716
 XXYZ=             -0.0000 YYXZ=             -0.0000 ZZXY=             -6.1361
 N-N= 1.224505602781D+02 E-N=-9.064462905955D+02  KE= 2.801939113960D+02
 Symmetry A'   KE= 2.663397777722D+02
 Symmetry A"   KE= 1.385413362383D+01
  Exact polarizability:  30.969   4.249  30.029   0.000   0.000  17.647
 Approx polarizability:  24.499   0.662  27.833   0.000   0.000  15.528
 No NMR shielding tensors so no spin-rotation constants.
 Leave Link  601 at Sun Mar  6 19:44:00 2022, MaxMem= 16106127360 cpu:               4.2 elap:               0.2
 (Enter /sw/contrib/gaussian/g16/B01/g16/l701.exe)
 ... and contract with generalized density number  2.
 Compute integral second derivatives.
 Leave Link  701 at Sun Mar  6 19:44:00 2022, MaxMem= 16106127360 cpu:               8.6 elap:               0.3
 (Enter /sw/contrib/gaussian/g16/B01/g16/l702.exe)
 L702 exits ... SP integral derivatives will be done elsewhere.
 Leave Link  702 at Sun Mar  6 19:44:01 2022, MaxMem= 16106127360 cpu:               1.1 elap:               0.1
 (Enter /sw/contrib/gaussian/g16/B01/g16/l703.exe)
 Integral derivatives from FoFJK, PRISM(SPDF).
 Compute integral second derivatives, UseDBF=F ICtDFT=           0.
 Calling FoFJK, ICntrl=  10100127 FMM=F ISym2X=1 I1Cent= 0 IOpClX= 0 NMat=1 NMatS=1 NMatT=0.
 FoFJK:  IHMeth= 1 ICntrl=10100127 DoSepK=F KAlg= 0 I1Cent=           0 FoldK=F
 IRaf=         0 NMat=       1 IRICut=       1 DoRegI=T DoRafI=F ISym2E= 1 IDoP0=0 IntGTp=1.
 FoFCou: FMM=F IPFlag=           0 FMFlag=      100000 FMFlg1=         800
         NFxFlg=           0 DoJE=F BraDBF=F KetDBF=F FulRan=T
         wScrn=  0.000000 ICntrl=  10100127 IOpCl=  0 I1Cent=           0 NGrid=           0
         NMat0=    1 NMatS0=      1 NMatT0=    0 NMatD0=    1 NMtDS0=    0 NMtDT0=    0
 Petite list used in FoFCou.
 Leave Link  703 at Sun Mar  6 19:44:17 2022, MaxMem= 16106127360 cpu:             446.8 elap:              16.0
 (Enter /sw/contrib/gaussian/g16/B01/g16/l716.exe)
 Dipole        = 3.29219197D-02-4.31219297D-01-1.10385332D-34
 Polarizability= 3.09686914D+01 4.24915355D+00 3.00294442D+01
                 1.47683543D-32 2.08862600D-32 1.76474521D+01
 Full mass-weighted force constant matrix:
 Low frequencies ---  -58.1855    0.0013    0.0016    0.0017   25.7493   60.9710
 Low frequencies ---  350.9014  378.3433  515.2495
 Diagonal vibrational polarizability:
        7.3897500      10.3344650      16.3321257
 Harmonic frequencies (cm**-1), IR intensities (KM/Mole), Raman scattering
 activities (A**4/AMU), depolarization ratios for plane and unpolarized
 incident light, reduced masses (AMU), force constants (mDyne/A),
 and normal coordinates:
                      1                      2                      3
                     A"                     A'                     A"
 Frequencies --    350.8359               378.3230               515.1934
 Red. masses --      1.5694                 7.1403                 2.8726
 Frc consts  --      0.1138                 0.6021                 0.4492
 IR Inten    --     62.7289                 7.5905                25.8135
  Atom  AN      X      Y      Z        X      Y      Z        X      Y      Z
     1   1     0.00  -0.00   0.98    -0.72  -0.26   0.00    -0.00   0.00   0.93
     2   8    -0.00   0.00  -0.11    -0.32  -0.32   0.00    -0.00  -0.00   0.05
     3   8    -0.00  -0.00   0.12    -0.07   0.08  -0.00     0.00   0.00  -0.18
     4   7     0.00   0.00  -0.11     0.05   0.09   0.00    -0.00  -0.00   0.27
     5   8    -0.00   0.00   0.03     0.39   0.17  -0.00     0.00  -0.00  -0.16
                      4                      5                      6
                     A'                     A'                     A'
 Frequencies --    701.4148               839.6141               967.3227
 Red. masses --     13.1493                12.4033                10.0045
 Frc consts  --      3.8116                 5.1517                 5.5156
 IR Inten    --    215.2493                35.1833                13.7567
  Atom  AN      X      Y      Z        X      Y      Z        X      Y      Z
     1   1    -0.38   0.01  -0.00     0.44  -0.15   0.00    -0.62  -0.01   0.00
     2   8    -0.01  -0.08  -0.00     0.53  -0.19   0.00     0.21  -0.17  -0.00
     3   8     0.37   0.59   0.00    -0.37  -0.02  -0.00    -0.38   0.40   0.00
     4   7    -0.39  -0.45  -0.00    -0.45  -0.07   0.00     0.39   0.05   0.00
     5   8     0.01  -0.12   0.00     0.21   0.28  -0.00    -0.13  -0.27  -0.00
                      7                      8                      9
                     A'                     A'                     A'
 Frequencies --   1440.8580              1568.7436              3490.3583
 Red. masses --      1.3026                 6.3343                 1.0641
 Frc consts  --      1.5933                 9.1844                 7.6380
 IR Inten    --     78.7406               153.0873                40.5300
  Atom  AN      X      Y      Z        X      Y      Z        X      Y      Z
     1   1     0.97  -0.20   0.00     0.77  -0.17   0.00     0.15   0.99  -0.00
     2   8    -0.06  -0.05   0.00    -0.02  -0.02   0.00    -0.01  -0.06   0.00
     3   8    -0.03   0.06  -0.00     0.04   0.06  -0.00     0.00  -0.00  -0.00
     4   7     0.06  -0.05   0.00    -0.24   0.40   0.00    -0.00   0.00  -0.00
     5   8    -0.02   0.05  -0.00     0.15  -0.37  -0.00     0.00  -0.00   0.00

 -------------------
 - Thermochemistry -
 -------------------
 Temperature   298.150 Kelvin.  Pressure   1.00000 Atm.
 Atom     1 has atomic number  1 and mass   1.00783
 Atom     2 has atomic number  8 and mass  15.99491
 Atom     3 has atomic number  8 and mass  15.99491
 Atom     4 has atomic number  7 and mass  14.00307
 Atom     5 has atomic number  8 and mass  15.99491
 Molecular mass:    62.99564 amu.
 Principal axes and moments of inertia in atomic units:
                           1         2         3
     Eigenvalues --    83.94016 226.18521 310.12537
           X            0.79060  -0.61234   0.00000
           Y            0.61234   0.79060   0.00000
           Z            0.00000  -0.00000   1.00000
 This molecule is an asymmetric top.
 Rotational symmetry number  1.
 Rotational temperatures (Kelvin)      1.03185     0.38293     0.27929
 Rotational constants (GHZ):          21.50033     7.97904     5.81939
 Zero-point vibrational energy      61324.5 (Joules/Mol)
                                   14.65692 (Kcal/Mol)
 Warning -- explicit consideration of   3 degrees of freedom as
           vibrations may cause significant error
 Vibrational temperatures:    504.77   544.32   741.25  1009.18  1208.02
          (Kelvin)           1391.76  2073.07  2257.07  5021.85
 
 Zero-point correction=                           0.023357 (Hartree/Particle)
 Thermal correction to Energy=                    0.027326
 Thermal correction to Enthalpy=                  0.028270
 Thermal correction to Gibbs Free Energy=        -0.002649
 Sum of electronic and zero-point Energies=           -280.431701
 Sum of electronic and thermal Energies=              -280.427733
 Sum of electronic and thermal Enthalpies=            -280.426789
 Sum of electronic and thermal Free Energies=         -280.457707
 
                     E (Thermal)             CV                S
                      KCal/Mol        Cal/Mol-Kelvin    Cal/Mol-Kelvin
 Total                   17.147             12.247             65.074
 Electronic               0.000              0.000              0.000
 Translational            0.889              2.981             38.341
 Rotational               0.889              2.981             23.292
 Vibrational             15.370              6.286              3.442
 Vibration     1          0.728              1.574              1.162
 Vibration     2          0.749              1.516              1.046
 Vibration     3          0.870              1.216              0.621
                       Q            Log10(Q)             Ln(Q)
 Total Bot       0.165313D+02          1.218306          2.805254
 Total V=0       0.916016D+12         11.961903         27.543299
 Vib (Bot)       0.306235D-10        -10.513945        -24.209252
 Vib (Bot)    1  0.525599D+00         -0.279345         -0.643216
 Vib (Bot)    2  0.478472D+00         -0.320143         -0.737157
 Vib (Bot)    3  0.314685D+00         -0.502124         -1.156182
 Vib (V=0)       0.169688D+01          0.229652          0.528793
 Vib (V=0)    1  0.122543D+01          0.088290          0.203295
 Vib (V=0)    2  0.119205D+01          0.076295          0.175676
 Vib (V=0)    3  0.109078D+01          0.037739          0.086898
 Electronic      0.100000D+01          0.000000          0.000000
 Translational   0.196526D+08          7.293420         16.793719
 Rotational      0.274683D+05          4.438831         10.220787
 
                                                                title
                                                             IR Spectrum
 
     3                                                                     1    1                                                    
     4                                                                     5    4                9    8    7      5    33            
     9                                                                     6    4                6    4    0      1    75            
     0                                                                     9    1                7    0    1      5    81            
 
     X                                                                     X    X                X    X    X      X    XX            
     X                                                                     X    X                     X    X      X     X            
     X                                                                     X    X                     X    X            X            
     X                                                                     X    X                          X            X            
                                                                           X    X                          X            X            
                                                                           X    X                          X            X            
                                                                           X    X                          X                         
                                                                           X                               X                         
                                                                           X                               X                         
                                                                           X                               X                         
                                                                           X                               X                         
                                                                           X                               X                         
                                                                           X                               X                         
                                                                           X                               X                         
                                                                                                           X                         
                                                                                                           X                         
                                                                                                           X                         
                                                                                                           X                         
                                                                                                           X                         
                                                                                                           X                         
 
 ***** Axes restored to original set *****
 -------------------------------------------------------------------
 Center     Atomic                   Forces (Hartrees/Bohr)
 Number     Number              X              Y              Z
 -------------------------------------------------------------------
      1        1          -0.000267785    0.000000000    0.000217417
      2        8          -0.001485509    0.000000000   -0.001071120
      3        8          -0.001194084    0.000000000   -0.004581455
      4        7           0.007540238   -0.000000000   -0.000002905
      5        8          -0.004592859    0.000000000    0.005438063
 -------------------------------------------------------------------
 Cartesian Forces:  Max     0.007540238 RMS     0.002982288
 -----------------------------------------------------------------------------------------------
                       Internal Coordinate Forces (Hartree/Bohr or radian)
  Cent   Atom   N1       Length/X         N2         Alpha/Y        N3         Beta/Z          J
 -----------------------------------------------------------------------------------------------
      1  H 
      2  O        1  -0.000217(     1)
      3  O        2   0.001881(     2)      1   0.000498(     5)
      4  N        3  -0.002879(     3)      2  -0.000891(     6)      1   0.000000(     8)     0
      5  O        4  -0.002349(     4)      3  -0.015171(     7)      2   0.000000(     9)     0
 -----------------------------------------------------------------------------------------------
 Internal  Forces:  Max     0.015171240 RMS     0.005255701
 Force constants in Cartesian coordinates: 
                1             2             3             4             5 
      1  0.727347D-01
      2  0.000000D+00  0.597204D-02
      3  0.230104D-01  0.000000D+00  0.437349D+00
      4 -0.517300D-01  0.000000D+00 -0.448302D-02  0.282017D+00
      5  0.000000D+00 -0.255650D-02  0.000000D+00  0.000000D+00  0.119148D-01
      6  0.338634D-01  0.000000D+00 -0.422586D+00 -0.109966D-01  0.000000D+00
      7 -0.255961D-01  0.000000D+00 -0.149783D-01 -0.172012D+00  0.000000D+00
      8  0.000000D+00 -0.410394D-02  0.000000D+00  0.000000D+00 -0.187721D-01
      9 -0.446590D-01  0.000000D+00 -0.191624D-01  0.973991D-02  0.000000D+00
     10 -0.572192D-02  0.000000D+00  0.653931D-02 -0.855734D-01  0.000000D+00
     11  0.000000D+00  0.793795D-02  0.000000D+00  0.000000D+00  0.204149D-01
     12 -0.185406D-01  0.000000D+00  0.115904D-01  0.980300D-02  0.000000D+00
     13  0.103132D-01  0.000000D+00 -0.100884D-01  0.272988D-01  0.000000D+00
     14  0.000000D+00 -0.724957D-02  0.000000D+00  0.000000D+00 -0.110011D-01
     15  0.632592D-02  0.000000D+00 -0.719084D-02 -0.406327D-02  0.000000D+00
                6             7             8             9            10 
      6  0.521903D+00
      7 -0.908667D-01  0.304679D+00
      8  0.000000D+00  0.000000D+00  0.415113D-01
      9 -0.962317D-01  0.811050D-01  0.000000D+00  0.307792D+00
     10  0.404423D-01 -0.143653D+00  0.000000D+00 -0.369325D-01  0.546486D+00
     11  0.000000D+00  0.000000D+00 -0.468559D-01  0.000000D+00  0.000000D+00
     12 -0.866876D-02  0.127171D-01  0.000000D+00 -0.239704D-01  0.243688D+00
     13  0.275576D-01  0.365824D-01  0.000000D+00 -0.925338D-02 -0.311537D+00
     14  0.000000D+00  0.000000D+00  0.282207D-01  0.000000D+00  0.000000D+00
     15  0.558332D-02  0.120229D-01  0.000000D+00 -0.168427D+00 -0.253737D+00
               11            12            13            14            15 
     11  0.540072D-01
     12  0.000000D+00  0.455630D+00
     13  0.000000D+00 -0.247668D+00  0.237343D+00
     14 -0.355042D-01  0.000000D+00  0.000000D+00  0.255342D-01
     15  0.000000D+00 -0.434581D+00  0.239452D+00  0.000000D+00  0.604616D+00
 Force constants in internal coordinates: 
                1             2             3             4             5 
      1  0.437349D+00
      2  0.209337D-01  0.261635D+00
      3  0.563008D-02  0.176295D-01  0.198591D+00
      4 -0.113204D-01  0.220877D-01  0.146053D+00  0.719360D+00
      5  0.425796D-01  0.579866D-01 -0.236592D-01  0.199054D-01  0.251793D+00
      6  0.126799D-01  0.216045D-01  0.805578D-01  0.105275D-01 -0.937097D-02
      7  0.113636D-01 -0.759343D-01  0.104400D+00  0.108417D+00 -0.238232D-01
      8  0.000000D+00  0.000000D+00  0.000000D+00  0.000000D+00  0.000000D+00
      9  0.000000D+00  0.000000D+00  0.000000D+00  0.000000D+00  0.000000D+00
                6             7             8             9 
      6  0.488617D+00
      7  0.359738D-01  0.619679D+00
      8  0.000000D+00  0.000000D+00  0.195205D-01
      9  0.000000D+00  0.000000D+00  0.269977D-01  0.107346D+00
 Leave Link  716 at Sun Mar  6 19:44:17 2022, MaxMem= 16106127360 cpu:               0.7 elap:               0.0
 (Enter /sw/contrib/gaussian/g16/B01/g16/l103.exe)

 GradGradGradGradGradGradGradGradGradGradGradGradGradGradGradGradGradGrad
 Berny optimization.
 Search for a local minimum.
 Step number   1 out of a maximum of    2
 All quantities printed in internal units (Hartrees-Bohrs-Radians)
 Second derivative matrix not updated -- analytic derivatives used.
 The second derivative matrix:
                          r1        r2        r3        r4        a1
           r1           0.43735
           r2           0.02093   0.26163
           r3           0.00563   0.01763   0.19859
           r4          -0.01132   0.02209   0.14605   0.71936
           a1           0.04258   0.05799  -0.02366   0.01991   0.25179
           a2           0.01268   0.02160   0.08056   0.01053  -0.00937
           a3           0.01136  -0.07593   0.10440   0.10842  -0.02382
           d1          -0.00000  -0.00000  -0.00000   0.00000   0.00000
           d2          -0.00000   0.00000   0.00000   0.00000   0.00000
                          a2        a3        d1        d2
           a2           0.48862
           a3           0.03597   0.61968
           d1          -0.00000   0.00000   0.01952
           d2           0.00000  -0.00000   0.02700   0.10735
 ITU=  0
     Eigenvalues ---    0.01189   0.11498   0.12274   0.20325   0.27764
     Eigenvalues ---    0.44755   0.49986   0.57952   0.84646
 Angle between quadratic step and forces=  14.21 degrees.
 Linear search not attempted -- first point.
 Variable       Old X    -DE/DX   Delta X   Delta X   Delta X     New X
                                 (Linear)    (Quad)   (Total)
    r1        1.86209  -0.00022   0.00000   0.00024   0.00024   1.86233
    r2        2.69614   0.00188   0.00000   0.00039   0.00039   2.69654
    r3        2.60992  -0.00288   0.00000  -0.00275  -0.00275   2.60716
    r4        2.25782  -0.00235   0.00000   0.00095   0.00095   2.25877
    a1        1.75642   0.00050   0.00000  -0.00076  -0.00076   1.75566
    a2        1.97463  -0.00089   0.00000   0.00035   0.00035   1.97498
    a3        2.01894  -0.01517   0.00000  -0.02419  -0.02419   1.99475
    d1        0.00000   0.00000   0.00000  -0.00000  -0.00000  -0.00000
    d2        0.00000   0.00000   0.00000   0.00000   0.00000   0.00000
         Item               Value     Threshold  Converged?
 Maximum Force            0.015171     0.000450     NO 
 RMS     Force            0.005256     0.000300     NO 
 Maximum Displacement     0.024190     0.001800     NO 
 RMS     Displacement     0.008128     0.001200     NO 
 Predicted change in Energy=-1.863465D-04
                       ----------------------------
                       ! Non-Optimized Parameters !
                       ! (Angstroms and Degrees)  !
 ----------------------                            ----------------------
 !      Name          Value   Derivative information (Atomic Units)     !
 ------------------------------------------------------------------------
 !       r1          0.9855   -DE/DX =   -0.0002                        !
 !       r2          1.4269   -DE/DX =    0.0019                        !
 !       r3          1.3796   -DE/DX =   -0.0029                        !
 !       r4          1.1953   -DE/DX =   -0.0023                        !
 !       a1        100.5919   -DE/DX =    0.0005                        !
 !       a2        113.158    -DE/DX =   -0.0009                        !
 !       a3        114.291    -DE/DX =   -0.0152                        !
 !       d1          0.0      -DE/DX =    0.0                           !
 !       d2          0.0      -DE/DX =    0.0                           !
 ------------------------------------------------------------------------
 GradGradGradGradGradGradGradGradGradGradGradGradGradGradGradGradGradGrad

 Leave Link  103 at Sun Mar  6 19:44:17 2022, MaxMem= 16106127360 cpu:               0.6 elap:               0.0
 (Enter /sw/contrib/gaussian/g16/B01/g16/l9999.exe)

 ----------------------------------------------------------------------

 Electric dipole moment (input orientation):
 (Debye = 10**-18 statcoulomb cm , SI units = C m)
                  (au)            (Debye)         (10**-30 SI)
   Tot        0.432474D+00      0.109924D+01      0.366667D+01
   x         -0.119631D+00     -0.304071D+00     -0.101427D+01
   y          0.000000D+00      0.000000D+00      0.000000D+00
   z         -0.415599D+00     -0.105635D+01     -0.352359D+01

 Dipole polarizability, Alpha (input orientation).
 (esu units = cm**3 , SI units = C**2 m**2 J**-1)
 Alpha(0;0):
               (au)            (10**-24 esu)      (10**-40 SI)
   iso        0.262152D+02      0.388469D+01      0.432230D+01
   aniso      0.148321D+02      0.219789D+01      0.244549D+01
   xx         0.292436D+02      0.433345D+01      0.482161D+01
   yx         0.000000D+00      0.000000D+00      0.000000D+00
   yy         0.176475D+02      0.261508D+01      0.290967D+01
   zx        -0.408651D+01     -0.605558D+00     -0.673775D+00
   zy         0.000000D+00      0.000000D+00      0.000000D+00
   zz         0.317546D+02      0.470554D+01      0.523562D+01

 ----------------------------------------------------------------------

 Dipole orientation:
     1          0.00000000         -0.00000000          0.00000000
     8         -0.51509045         -0.00000000         -1.78943241
     8          1.89369129         -0.00000000         -3.00060942
     7          3.88806908          0.00000000         -1.31712656
     8          3.32308901          0.00000000          0.86886567

 Electric dipole moment (dipole orientation):
 (Debye = 10**-18 statcoulomb cm , SI units = C m)
                  (au)            (Debye)         (10**-30 SI)
   Tot        0.432474D+00      0.109924D+01      0.366667D+01
   x          0.000000D+00      0.000000D+00      0.000000D+00
   y          0.000000D+00      0.000000D+00      0.000000D+00
   z          0.432474D+00      0.109924D+01      0.366667D+01

 Dipole polarizability, Alpha (dipole orientation).
 (esu units = cm**3 , SI units = C**2 m**2 J**-1)
 Alpha(0;0):
               (au)            (10**-24 esu)      (10**-40 SI)
   iso        0.262152D+02      0.388469D+01      0.432230D+01
   aniso      0.148321D+02      0.219789D+01      0.244549D+01
   xx         0.316083D+02      0.468387D+01      0.521150D+01
   yx         0.000000D+00      0.000000D+00      0.000000D+00
   yy         0.176475D+02      0.261508D+01      0.290967D+01
   zx         0.412861D+01      0.611797D+00      0.680716D+00
   zy         0.000000D+00      0.000000D+00      0.000000D+00
   zz         0.293898D+02      0.435512D+01      0.484573D+01

 ----------------------------------------------------------------------
 1\1\GINC-N2109\Freq\RMP2-FC\Aug-CC-pVTZ\H1N1O3\CGAVINH\06-Mar-2022\1\\
 #p freq mp2/aug-cc-pvtz density=current\\title\\0,1\H\O,1,r1\O,2,r2,1,
 a1\N,3,r3,2,a2,1,d1,0\O,4,r4,3,a3,2,d2,0\\r1=0.98537664\r2=1.42673666\
 r3=1.38110764\r4=1.19478846\a1=100.6355057\a2=113.13777052\a3=115.6769
 362\d1=0.\d2=0.\\Version=ES64L-G16RevB.01\State=1-A'\HF=-279.5062868\M
 P2=-280.4550588\RMSD=4.284e-09\RMSF=2.982e-03\ZeroPoint=0.0233573\Ther
 mal=0.0273259\Dipole=-0.1196307,0.,-0.4155989\DipoleDeriv=0.3137685,0.
 ,0.0397552,0.,0.2985896,0.,-0.0207532,0.,0.1947027,-0.5316515,0.,0.279
 1272,0.,-0.2540405,0.,-0.1089393,0.,-0.1233312,0.0054186,0.,0.3421031,
 0.,-0.0088395,0.,0.450303,0.,-0.9246089,0.2046311,0.,-0.1602518,0.,0.0
 080563,0.,-0.6821516,0.,1.7302439,0.0078333,0.,-0.5007336,0.,-0.043766
 ,0.,0.3615411,0.,-0.8770064\Polar=29.2435671,0.,17.6474521,-4.0865108,
 0.,31.7545685\Quadrupole=0.1163391,0.6152508,-0.7315899,0.,1.4064217,0
 .\PG=CS [SG(H1N1O3)]\NImag=0\\0.07273469,0.,0.00597204,0.02301036,0.,0
 .43734919,-0.05172996,0.,-0.00448302,0.28201670,0.,-0.00255650,0.,0.,0
 .01191475,0.03386337,0.,-0.42258636,-0.01099662,0.,0.52190347,-0.02559
 606,0.,-0.01497829,-0.17201215,0.,-0.09086665,0.30467909,0.,-0.0041039
 4,0.,0.,-0.01877211,0.,0.,0.04151128,-0.04465902,0.,-0.01916243,0.0097
 3991,0.,-0.09623167,0.08110502,0.,0.30779156,-0.00572192,0.,0.00653931
 ,-0.08557340,0.,0.04044227,-0.14365328,0.,-0.03693252,0.54648582,0.,0.
 00793795,0.,0.,0.02041492,0.,0.,-0.04685590,0.,0.,0.05400723,-0.018540
 63,0.,0.01159043,0.00980300,0.,-0.00866876,0.01271706,0.,-0.02397038,0
 .24368815,0.,0.45563009,0.01031325,0.,-0.01008837,0.02729880,0.,0.0275
 5764,0.03658239,0.,-0.00925338,-0.31153722,0.,-0.24766758,0.23734279,0
 .,-0.00724957,0.,0.,-0.01100107,0.,0.,0.02822067,0.,0.,-0.03550421,0.,
 0.,0.02553418,0.00632592,0.,-0.00719084,-0.00406327,0.,0.00558332,0.01
 202286,0.,-0.16842708,-0.25373721,0.,-0.43458138,0.23945169,0.,0.60461
 598\\0.00026779,0.,-0.00021742,0.00148551,0.,0.00107112,0.00119408,0.,
 0.00458145,-0.00754024,0.,0.00000291,0.00459286,0.,-0.00543806\\\@


 I do not feel obliged to believe that the same God who
 has endowed us with sense, reason, and intellect has
 intended us to forgo their use.
                   --Galileo Galilei
 Job cpu time:       0 days  2 hours  0 minutes 44.5 seconds.
 Elapsed time:       0 days  0 hours  4 minutes 21.9 seconds.
 File lengths (MBytes):  RWF=   7239 Int=      0 D2E=      0 Chk=      8 Scr=      1
 Normal termination of Gaussian 16 at Sun Mar  6 19:44:18 2022.
