 Entering Gaussian System, Link 0=g16
 Input=hoono_r4_1p205914.gjf
 Output=hoono_r4_1p205914.log
 Initial command:
 /sw/contrib/gaussian/g16/B01/g16/l1.exe "/scr/Gau-25043.inp" -scrdir="/scr/"
 Entering Link 1 = /sw/contrib/gaussian/g16/B01/g16/l1.exe PID=     25044.
  
 Copyright (c) 1988-2017, Gaussian, Inc.  All Rights Reserved.
  
 This is part of the Gaussian(R) 16 program.  It is based on
 the Gaussian(R) 09 system (copyright 2009, Gaussian, Inc.),
 the Gaussian(R) 03 system (copyright 2003, Gaussian, Inc.),
 the Gaussian(R) 98 system (copyright 1998, Gaussian, Inc.),
 the Gaussian(R) 94 system (copyright 1995, Gaussian, Inc.),
 the Gaussian 92(TM) system (copyright 1992, Gaussian, Inc.),
 the Gaussian 90(TM) system (copyright 1990, Gaussian, Inc.),
 the Gaussian 88(TM) system (copyright 1988, Gaussian, Inc.),
 the Gaussian 86(TM) system (copyright 1986, Carnegie Mellon
 University), and the Gaussian 82(TM) system (copyright 1983,
 Carnegie Mellon University). Gaussian is a federally registered
 trademark of Gaussian, Inc.
  
 This software contains proprietary and confidential information,
 including trade secrets, belonging to Gaussian, Inc.
  
 This software is provided under written license and may be
 used, copied, transmitted, or stored only in accord with that
 written license.
  
 The following legend is applicable only to US Government
 contracts under FAR:
  
                    RESTRICTED RIGHTS LEGEND
  
 Use, reproduction and disclosure by the US Government is
 subject to restrictions as set forth in subparagraphs (a)
 and (c) of the Commercial Computer Software - Restricted
 Rights clause in FAR 52.227-19.
  
 Gaussian, Inc.
 340 Quinnipiac St., Bldg. 40, Wallingford CT 06492
  
  
 ---------------------------------------------------------------
 Warning -- This program may not be used in any manner that
 competes with the business of Gaussian, Inc. or will provide
 assistance to any competitor of Gaussian, Inc.  The licensee
 of this program is prohibited from giving any competitor of
 Gaussian, Inc. access to this program.  By using this program,
 the user acknowledges that Gaussian, Inc. is engaged in the
 business of creating and licensing software in the field of
 computational chemistry and represents and warrants to the
 licensee that it is not a competitor of Gaussian, Inc. and that
 it will not use this program in any manner prohibited above.
 ---------------------------------------------------------------
  

 Cite this work as:
 Gaussian 16, Revision B.01,
 M. J. Frisch, G. W. Trucks, H. B. Schlegel, G. E. Scuseria, 
 M. A. Robb, J. R. Cheeseman, G. Scalmani, V. Barone, 
 G. A. Petersson, H. Nakatsuji, X. Li, M. Caricato, A. V. Marenich, 
 J. Bloino, B. G. Janesko, R. Gomperts, B. Mennucci, H. P. Hratchian, 
 J. V. Ortiz, A. F. Izmaylov, J. L. Sonnenberg, D. Williams-Young, 
 F. Ding, F. Lipparini, F. Egidi, J. Goings, B. Peng, A. Petrone, 
 T. Henderson, D. Ranasinghe, V. G. Zakrzewski, J. Gao, N. Rega, 
 G. Zheng, W. Liang, M. Hada, M. Ehara, K. Toyota, R. Fukuda, 
 J. Hasegawa, M. Ishida, T. Nakajima, Y. Honda, O. Kitao, H. Nakai, 
 T. Vreven, K. Throssell, J. A. Montgomery, Jr., J. E. Peralta, 
 F. Ogliaro, M. J. Bearpark, J. J. Heyd, E. N. Brothers, K. N. Kudin, 
 V. N. Staroverov, T. A. Keith, R. Kobayashi, J. Normand, 
 K. Raghavachari, A. P. Rendell, J. C. Burant, S. S. Iyengar, 
 J. Tomasi, M. Cossi, J. M. Millam, M. Klene, C. Adamo, R. Cammi, 
 J. W. Ochterski, R. L. Martin, K. Morokuma, O. Farkas, 
 J. B. Foresman, and D. J. Fox, Gaussian, Inc., Wallingford CT, 2016.
 
 ******************************************
 Gaussian 16:  ES64L-G16RevB.01 20-Dec-2017
                 6-Mar-2022 
 ******************************************
 %nproc=28
 Will use up to   28 processors via shared memory.
 %mem=120GB
 %chk=hoono_r4_1p205914.chk
 ---------------------------------------
 #p freq mp2/aug-cc-pvtz density=current
 ---------------------------------------
 1/10=4,30=1,38=1/1,3;
 2/12=2,17=6,18=5,40=1/2;
 3/5=16,6=1,7=10,11=9,25=1,30=1,71=2,140=1/1,2,3;
 4//1;
 5/5=2,38=5,98=1/2;
 8/6=3,8=1,10=1,19=11,30=-1/1;
 9/15=3,16=-3/6;
 11/6=1,8=1,15=11,17=12,24=-1,27=1,28=-2,29=300,32=6,42=3/1,2,10;
 10/6=2,21=1/2;
 8/6=4,8=1,10=1,19=11,30=-1/11,4;
 10/5=1,20=4/2;
 11/12=2,14=11,16=1,17=2,28=-2,42=3,76=2/2,10,12;
 6/7=2,8=2,9=2,10=2,22=-1/1;
 7/8=1,10=1,12=2,25=1,44=2/1,2,3,16;
 1/10=4,30=1/3;
 99//99;
 Leave Link    1 at Sun Mar  6 19:13:06 2022, MaxMem= 16106127360 cpu:               2.9 elap:               0.1
 (Enter /sw/contrib/gaussian/g16/B01/g16/l101.exe)
 -----
 title
 -----
 Symbolic Z-matrix:
 Charge =  0 Multiplicity = 1
 H
 O                    1    r1
 O                    2    r2       1    a1
 N                    3    r3       2    a2       1    d1       0
 O                    4    r4       3    a3       2    d2       0
       Variables:
  r1                    0.98538                  
  r2                    1.42674                  
  r3                    1.38111                  
  r4                    1.20591                  
  a1                  100.63551                  
  a2                  113.13777                  
  a3                  114.33392                  
  d1                    0.                       
  d2                    0.                       
 
 ITRead=  0  0  0  0  0
 MicOpt= -1 -1 -1 -1 -1
 NAtoms=      5 NQM=        5 NQMF=       0 NMMI=      0 NMMIF=      0
                NMic=       0 NMicF=      0.
                    Isotopes and Nuclear Properties:
 (Nuclear quadrupole moments (NQMom) in fm**2, nuclear magnetic moments (NMagM)
  in nuclear magnetons)

  Atom         1           2           3           4           5
 IAtWgt=           1          16          16          14          16
 AtmWgt=   1.0078250  15.9949146  15.9949146  14.0030740  15.9949146
 NucSpn=           1           0           0           2           0
 AtZEff=  -0.0000000  -0.0000000  -0.0000000  -0.0000000  -0.0000000
 NQMom=    0.0000000   0.0000000   0.0000000   2.0440000   0.0000000
 NMagM=    2.7928460   0.0000000   0.0000000   0.4037610   0.0000000
 AtZNuc=   1.0000000   8.0000000   8.0000000   7.0000000   8.0000000
 Leave Link  101 at Sun Mar  6 19:13:06 2022, MaxMem= 16106127360 cpu:               2.6 elap:               0.1
 (Enter /sw/contrib/gaussian/g16/B01/g16/l103.exe)

 GradGradGradGradGradGradGradGradGradGradGradGradGradGradGradGradGradGrad
 Berny optimization.
 Initialization pass.
                       ----------------------------
                       !    Initial Parameters    !
                       ! (Angstroms and Degrees)  !
 ----------------------                            ----------------------
 !      Name          Value   Derivative information (Atomic Units)     !
 ------------------------------------------------------------------------
 !       r1          0.9854   calculate D2E/DX2 analytically            !
 !       r2          1.4267   calculate D2E/DX2 analytically            !
 !       r3          1.3811   calculate D2E/DX2 analytically            !
 !       r4          1.2059   calculate D2E/DX2 analytically            !
 !       a1        100.6355   calculate D2E/DX2 analytically            !
 !       a2        113.1378   calculate D2E/DX2 analytically            !
 !       a3        114.3339   calculate D2E/DX2 analytically            !
 !       d1          0.0      calculate D2E/DX2 analytically            !
 !       d2          0.0      calculate D2E/DX2 analytically            !
 ------------------------------------------------------------------------
 Trust Radius=3.00D-01 FncErr=1.00D-07 GrdErr=1.00D-07 EigMax=2.50D+02 EigMin=1.00D-04
 Number of steps in this run=      2 maximum allowed number of steps=      2.
 GradGradGradGradGradGradGradGradGradGradGradGradGradGradGradGradGradGrad

 Leave Link  103 at Sun Mar  6 19:13:06 2022, MaxMem= 16106127360 cpu:               0.9 elap:               0.1
 (Enter /sw/contrib/gaussian/g16/B01/g16/l202.exe)
                          Input orientation:                          
 ---------------------------------------------------------------------
 Center     Atomic      Atomic             Coordinates (Angstroms)
 Number     Number       Type             X           Y           Z
 ---------------------------------------------------------------------
      1          1           0        0.000000    0.000000    0.000000
      2          8           0        0.000000    0.000000    0.985377
      3          8           0        1.402227    0.000000    1.248696
      4          7           0        2.169996    0.000000    0.100659
      5          8           0        1.532873    0.000000   -0.923208
 ---------------------------------------------------------------------
                    Distance matrix (angstroms):
                    1          2          3          4          5
     1  H    0.000000
     2  O    0.985377   0.000000
     3  O    1.877627   1.426737   0.000000
     4  N    2.172329   2.343418   1.381108   0.000000
     5  O    1.789417   2.447937   2.175830   1.205914   0.000000
 Stoichiometry    HNO3
 Framework group  CS[SG(HNO3)]
 Deg. of freedom     7
 Full point group                 CS      NOp   2
 Largest Abelian subgroup         CS      NOp   2
 Largest concise Abelian subgroup C1      NOp   1
                         Standard orientation:                         
 ---------------------------------------------------------------------
 Center     Atomic      Atomic             Coordinates (Angstroms)
 Number     Number       Type             X           Y           Z
 ---------------------------------------------------------------------
      1          1           0        1.107640   -0.596512    0.000000
      2          8           0        1.315264    0.366743    0.000000
      3          8           0       -0.000000    0.919606    0.000000
      4          7           0       -0.992429   -0.040885   -0.000000
      5          8           0       -0.585344   -1.176011   -0.000000
 ---------------------------------------------------------------------
 Rotational constants (GHZ):          21.1705196           8.0909116           5.8537397
 Leave Link  202 at Sun Mar  6 19:13:06 2022, MaxMem= 16106127360 cpu:               0.3 elap:               0.0
 (Enter /sw/contrib/gaussian/g16/B01/g16/l301.exe)
 Standard basis: Aug-CC-pVTZ (5D, 7F)
 Ernie: Thresh=  0.10000D-02 Tol=  0.10000D-05 Strict=F.
 Ernie:  12 primitive shells out of 131 were deleted.
 There are   166 symmetry adapted cartesian basis functions of A'  symmetry.
 There are    79 symmetry adapted cartesian basis functions of A"  symmetry.
 There are   136 symmetry adapted basis functions of A'  symmetry.
 There are    71 symmetry adapted basis functions of A"  symmetry.
   207 basis functions,   315 primitive gaussians,   245 cartesian basis functions
    16 alpha electrons       16 beta electrons
       nuclear repulsion energy       122.4359010182 Hartrees.
 IExCor=    0 DFT=F Ex=HF Corr=None ExCW=0 ScaHFX=  1.000000
 ScaDFX=  1.000000  1.000000  1.000000  1.000000 ScalE2=  1.000000  1.000000
 IRadAn=      5 IRanWt=     -1 IRanGd=            0 ICorTp=0 IEmpDi=  4
 NAtoms=    5 NActive=    5 NUniq=    5 SFac= 1.00D+00 NAtFMM=   60 NAOKFM=F Big=F
 Integral buffers will be    131072 words long.
 Raffenetti 1 integral format.
 Two-electron integral symmetry is turned on.
 Leave Link  301 at Sun Mar  6 19:13:06 2022, MaxMem= 16106127360 cpu:               1.8 elap:               0.1
 (Enter /sw/contrib/gaussian/g16/B01/g16/l302.exe)
 NPDir=0 NMtPBC=     1 NCelOv=     1 NCel=       1 NClECP=     1 NCelD=      1
         NCelK=      1 NCelE2=     1 NClLst=     1 CellRange=     0.0.
 One-electron integrals computed using PRISM.
 One-electron integral symmetry used in STVInt
 NBasis=   207 RedAO= T EigKep=  1.33D-04  NBF=   136    71
 NBsUse=   207 1.00D-06 EigRej= -1.00D+00 NBFU=   136    71
 Leave Link  302 at Sun Mar  6 19:13:06 2022, MaxMem= 16106127360 cpu:               4.5 elap:               0.2
 (Enter /sw/contrib/gaussian/g16/B01/g16/l303.exe)
 DipDrv:  MaxL=1.
 Leave Link  303 at Sun Mar  6 19:13:07 2022, MaxMem= 16106127360 cpu:               1.0 elap:               0.1
 (Enter /sw/contrib/gaussian/g16/B01/g16/l401.exe)
 ExpMin= 2.53D-02 ExpMax= 1.53D+04 ExpMxC= 5.22D+02 IAcc=3 IRadAn=         5 AccDes= 0.00D+00
 Harris functional with IExCor=  205 and IRadAn=       5 diagonalized for initial guess.
 HarFok:  IExCor=  205 AccDes= 0.00D+00 IRadAn=         5 IDoV= 1 UseB2=F ITyADJ=14
 ICtDFT=  3500011 ScaDFX=  1.000000  1.000000  1.000000  1.000000
 FoFCou: FMM=F IPFlag=           0 FMFlag=      100000 FMFlg1=           0
         NFxFlg=           0 DoJE=T BraDBF=F KetDBF=T FulRan=T
         wScrn=  0.000000 ICntrl=       500 IOpCl=  0 I1Cent=   200000004 NGrid=           0
         NMat0=    1 NMatS0=      1 NMatT0=    0 NMatD0=    1 NMtDS0=    0 NMtDT0=    0
 Petite list used in FoFCou.
 Harris En= -279.644937345541    
 JPrj=0 DoOrth=F DoCkMO=F.
 Initial guess orbital symmetries:
       Occupied  (A') (A') (A') (A') (A') (A') (A') (A') (A') (A')
                 (A") (A') (A") (A') (A") (A')
       Virtual   (A") (A') (A') (A') (A') (A") (A') (A') (A') (A')
                 (A") (A') (A") (A') (A') (A") (A') (A') (A") (A')
                 (A') (A') (A') (A') (A") (A') (A') (A') (A") (A')
                 (A') (A") (A") (A') (A') (A") (A') (A") (A') (A")
                 (A') (A") (A') (A") (A') (A') (A') (A") (A') (A')
                 (A') (A") (A') (A") (A') (A") (A') (A') (A') (A")
                 (A') (A') (A") (A') (A') (A') (A") (A") (A') (A')
                 (A") (A') (A") (A") (A') (A') (A") (A') (A') (A')
                 (A") (A') (A') (A") (A') (A") (A') (A") (A') (A')
                 (A') (A") (A') (A") (A') (A') (A") (A') (A") (A')
                 (A") (A') (A') (A") (A") (A') (A') (A') (A") (A')
                 (A") (A') (A') (A') (A") (A') (A') (A') (A") (A')
                 (A") (A') (A') (A") (A") (A") (A") (A') (A') (A')
                 (A') (A') (A') (A") (A') (A") (A') (A") (A') (A')
                 (A") (A") (A') (A') (A') (A") (A') (A') (A') (A")
                 (A') (A') (A') (A") (A') (A") (A") (A') (A") (A')
                 (A') (A") (A") (A') (A") (A') (A') (A") (A") (A')
                 (A") (A") (A") (A') (A") (A') (A') (A') (A') (A")
                 (A') (A') (A') (A') (A') (A') (A') (A') (A') (A')
                 (A')
 The electronic state of the initial guess is 1-A'.
 Leave Link  401 at Sun Mar  6 19:13:07 2022, MaxMem= 16106127360 cpu:               9.1 elap:               0.4
 (Enter /sw/contrib/gaussian/g16/B01/g16/l502.exe)
 Keep R1 ints in memory in symmetry-blocked form, NReq=348887737.
 FoFCou: FMM=F IPFlag=           0 FMFlag=           0 FMFlg1=           0
         NFxFlg=           0 DoJE=F BraDBF=F KetDBF=F FulRan=T
         wScrn=  0.000000 ICntrl=       600 IOpCl=  0 I1Cent=           0 NGrid=           0
         NMat0=    1 NMatS0=  21528 NMatT0=    0 NMatD0=    1 NMtDS0=    0 NMtDT0=    0
 Petite list used in FoFCou.
 Closed shell SCF:
 Using DIIS extrapolation, IDIIS=  1040.
 NGot= 16106127360 LenX= 15988850015 LenY= 15988789549
 Requested convergence on RMS density matrix=1.00D-08 within 128 cycles.
 Requested convergence on MAX density matrix=1.00D-06.
 Requested convergence on             energy=1.00D-06.
 No special actions if energy rises.

 Cycle   1  Pass 1  IDiag  1:
 E= -279.360027330011    
 DIIS: error= 2.77D-02 at cycle   1 NSaved=   1.
 NSaved= 1 IEnMin= 1 EnMin= -279.360027330011     IErMin= 1 ErrMin= 2.77D-02
 ErrMax= 2.77D-02  0.00D+00 EMaxC= 1.00D-01 BMatC= 4.53D-01 BMatP= 4.53D-01
 IDIUse=3 WtCom= 7.23D-01 WtEn= 2.77D-01
 Coeff-Com:  0.100D+01
 Coeff-En:   0.100D+01
 Coeff:      0.100D+01
 Gap=     0.494 Goal=   None    Shift=    0.000
 GapD=    0.494 DampG=2.000 DampE=0.500 DampFc=1.0000 IDamp=-1.
 RMSDP=1.69D-03 MaxDP=8.81D-02              OVMax= 1.27D-01

 Cycle   2  Pass 1  IDiag  1:
 E= -279.440732322501     Delta-E=       -0.080704992490 Rises=F Damp=F
 DIIS: error= 2.02D-02 at cycle   2 NSaved=   2.
 NSaved= 2 IEnMin= 2 EnMin= -279.440732322501     IErMin= 2 ErrMin= 2.02D-02
 ErrMax= 2.02D-02  0.00D+00 EMaxC= 1.00D-01 BMatC= 9.07D-02 BMatP= 4.53D-01
 IDIUse=3 WtCom= 7.98D-01 WtEn= 2.02D-01
 Coeff-Com:  0.226D+00 0.774D+00
 Coeff-En:   0.107D+00 0.893D+00
 Coeff:      0.202D+00 0.798D+00
 Gap=     0.562 Goal=   None    Shift=    0.000
 RMSDP=9.82D-04 MaxDP=3.64D-02 DE=-8.07D-02 OVMax= 9.54D-02

 Cycle   3  Pass 1  IDiag  1:
 E= -279.481462110846     Delta-E=       -0.040729788344 Rises=F Damp=F
 DIIS: error= 1.13D-02 at cycle   3 NSaved=   3.
 NSaved= 3 IEnMin= 3 EnMin= -279.481462110846     IErMin= 3 ErrMin= 1.13D-02
 ErrMax= 1.13D-02  0.00D+00 EMaxC= 1.00D-01 BMatC= 3.14D-02 BMatP= 9.07D-02
 IDIUse=3 WtCom= 8.87D-01 WtEn= 1.13D-01
 Coeff-Com: -0.349D-01 0.360D+00 0.675D+00
 Coeff-En:   0.000D+00 0.211D+00 0.789D+00
 Coeff:     -0.310D-01 0.343D+00 0.688D+00
 Gap=     0.542 Goal=   None    Shift=    0.000
 RMSDP=4.16D-04 MaxDP=1.63D-02 DE=-4.07D-02 OVMax= 4.05D-02

 Cycle   4  Pass 1  IDiag  1:
 E= -279.503042823596     Delta-E=       -0.021580712751 Rises=F Damp=F
 DIIS: error= 1.64D-03 at cycle   4 NSaved=   4.
 NSaved= 4 IEnMin= 4 EnMin= -279.503042823596     IErMin= 4 ErrMin= 1.64D-03
 ErrMax= 1.64D-03  0.00D+00 EMaxC= 1.00D-01 BMatC= 6.23D-04 BMatP= 3.14D-02
 IDIUse=3 WtCom= 9.84D-01 WtEn= 1.64D-02
 Coeff-Com: -0.121D-01 0.457D-01 0.155D+00 0.811D+00
 Coeff-En:   0.000D+00 0.000D+00 0.000D+00 0.100D+01
 Coeff:     -0.119D-01 0.449D-01 0.153D+00 0.814D+00
 Gap=     0.529 Goal=   None    Shift=    0.000
 RMSDP=1.00D-04 MaxDP=2.28D-03 DE=-2.16D-02 OVMax= 1.20D-02

 Cycle   5  Pass 1  IDiag  1:
 E= -279.503884858023     Delta-E=       -0.000842034426 Rises=F Damp=F
 DIIS: error= 1.11D-03 at cycle   5 NSaved=   5.
 NSaved= 5 IEnMin= 5 EnMin= -279.503884858023     IErMin= 5 ErrMin= 1.11D-03
 ErrMax= 1.11D-03  0.00D+00 EMaxC= 1.00D-01 BMatC= 1.06D-04 BMatP= 6.23D-04
 IDIUse=3 WtCom= 9.89D-01 WtEn= 1.11D-02
 Coeff-Com:  0.549D-02-0.656D-01-0.113D+00 0.585D-01 0.111D+01
 Coeff-En:   0.000D+00 0.000D+00 0.000D+00 0.000D+00 0.100D+01
 Coeff:      0.543D-02-0.648D-01-0.111D+00 0.578D-01 0.111D+01
 Gap=     0.533 Goal=   None    Shift=    0.000
 RMSDP=8.12D-05 MaxDP=2.15D-03 DE=-8.42D-04 OVMax= 1.32D-02

 Cycle   6  Pass 1  IDiag  1:
 E= -279.504260414321     Delta-E=       -0.000375556299 Rises=F Damp=F
 DIIS: error= 3.32D-04 at cycle   6 NSaved=   6.
 NSaved= 6 IEnMin= 6 EnMin= -279.504260414321     IErMin= 6 ErrMin= 3.32D-04
 ErrMax= 3.32D-04  0.00D+00 EMaxC= 1.00D-01 BMatC= 2.48D-05 BMatP= 1.06D-04
 IDIUse=3 WtCom= 9.97D-01 WtEn= 3.32D-03
 Coeff-Com:  0.189D-02-0.670D-02-0.176D-01-0.183D+00 0.977D-02 0.120D+01
 Coeff-En:   0.000D+00 0.000D+00 0.000D+00 0.000D+00 0.000D+00 0.100D+01
 Coeff:      0.189D-02-0.667D-02-0.176D-01-0.182D+00 0.974D-02 0.119D+01
 Gap=     0.533 Goal=   None    Shift=    0.000
 RMSDP=4.74D-05 MaxDP=1.09D-03 DE=-3.76D-04 OVMax= 6.22D-03

 Cycle   7  Pass 1  IDiag  1:
 E= -279.504349300711     Delta-E=       -0.000088886390 Rises=F Damp=F
 DIIS: error= 1.29D-04 at cycle   7 NSaved=   7.
 NSaved= 7 IEnMin= 7 EnMin= -279.504349300711     IErMin= 7 ErrMin= 1.29D-04
 ErrMax= 1.29D-04  0.00D+00 EMaxC= 1.00D-01 BMatC= 3.69D-06 BMatP= 2.48D-05
 IDIUse=3 WtCom= 9.99D-01 WtEn= 1.29D-03
 Coeff-Com: -0.110D-02 0.112D-01 0.251D-01 0.152D-01-0.179D+00-0.146D+00
 Coeff-Com:  0.127D+01
 Coeff-En:   0.000D+00 0.000D+00 0.000D+00 0.000D+00 0.000D+00 0.000D+00
 Coeff-En:   0.100D+01
 Coeff:     -0.110D-02 0.112D-01 0.250D-01 0.151D-01-0.178D+00-0.146D+00
 Coeff:      0.127D+01
 Gap=     0.533 Goal=   None    Shift=    0.000
 RMSDP=1.77D-05 MaxDP=5.27D-04 DE=-8.89D-05 OVMax= 2.38D-03

 Cycle   8  Pass 1  IDiag  1:
 E= -279.504361772230     Delta-E=       -0.000012471520 Rises=F Damp=F
 DIIS: error= 4.97D-05 at cycle   8 NSaved=   8.
 NSaved= 8 IEnMin= 8 EnMin= -279.504361772230     IErMin= 8 ErrMin= 4.97D-05
 ErrMax= 4.97D-05  0.00D+00 EMaxC= 1.00D-01 BMatC= 6.55D-07 BMatP= 3.69D-06
 IDIUse=1 WtCom= 1.00D+00 WtEn= 0.00D+00
 Coeff-Com: -0.575D-03 0.407D-02 0.991D-02 0.251D-01-0.568D-01-0.198D+00
 Coeff-Com:  0.360D+00 0.856D+00
 Coeff:     -0.575D-03 0.407D-02 0.991D-02 0.251D-01-0.568D-01-0.198D+00
 Coeff:      0.360D+00 0.856D+00
 Gap=     0.533 Goal=   None    Shift=    0.000
 RMSDP=5.71D-06 MaxDP=1.62D-04 DE=-1.25D-05 OVMax= 6.90D-04

 Cycle   9  Pass 1  IDiag  1:
 E= -279.504363290213     Delta-E=       -0.000001517982 Rises=F Damp=F
 DIIS: error= 2.57D-05 at cycle   9 NSaved=   9.
 NSaved= 9 IEnMin= 9 EnMin= -279.504363290213     IErMin= 9 ErrMin= 2.57D-05
 ErrMax= 2.57D-05  0.00D+00 EMaxC= 1.00D-01 BMatC= 1.27D-07 BMatP= 6.55D-07
 IDIUse=1 WtCom= 1.00D+00 WtEn= 0.00D+00
 Coeff-Com:  0.250D-03-0.258D-02-0.545D-02-0.570D-02 0.479D-01 0.499D-01
 Coeff-Com: -0.346D+00 0.232D-01 0.124D+01
 Coeff:      0.250D-03-0.258D-02-0.545D-02-0.570D-02 0.479D-01 0.499D-01
 Coeff:     -0.346D+00 0.232D-01 0.124D+01
 Gap=     0.533 Goal=   None    Shift=    0.000
 RMSDP=2.63D-06 MaxDP=7.17D-05 DE=-1.52D-06 OVMax= 2.76D-04

 Cycle  10  Pass 1  IDiag  1:
 E= -279.504363589565     Delta-E=       -0.000000299352 Rises=F Damp=F
 DIIS: error= 6.16D-06 at cycle  10 NSaved=  10.
 NSaved=10 IEnMin=10 EnMin= -279.504363589565     IErMin=10 ErrMin= 6.16D-06
 ErrMax= 6.16D-06  0.00D+00 EMaxC= 1.00D-01 BMatC= 9.74D-09 BMatP= 1.27D-07
 IDIUse=1 WtCom= 1.00D+00 WtEn= 0.00D+00
 Coeff-Com: -0.385D-04 0.484D-03 0.120D-02-0.211D-02-0.109D-01 0.650D-02
 Coeff-Com:  0.717D-01-0.536D-01-0.434D+00 0.142D+01
 Coeff:     -0.385D-04 0.484D-03 0.120D-02-0.211D-02-0.109D-01 0.650D-02
 Coeff:      0.717D-01-0.536D-01-0.434D+00 0.142D+01
 Gap=     0.533 Goal=   None    Shift=    0.000
 RMSDP=7.66D-07 MaxDP=2.72D-05 DE=-2.99D-07 OVMax= 8.42D-05

 Cycle  11  Pass 1  IDiag  1:
 E= -279.504363619315     Delta-E=       -0.000000029750 Rises=F Damp=F
 DIIS: error= 2.31D-06 at cycle  11 NSaved=  11.
 NSaved=11 IEnMin=11 EnMin= -279.504363619315     IErMin=11 ErrMin= 2.31D-06
 ErrMax= 2.31D-06  0.00D+00 EMaxC= 1.00D-01 BMatC= 1.06D-09 BMatP= 9.74D-09
 IDIUse=1 WtCom= 1.00D+00 WtEn= 0.00D+00
 Coeff-Com: -0.206D-04 0.211D-03 0.465D-03 0.852D-03-0.322D-02-0.735D-02
 Coeff-Com:  0.258D-01 0.166D-01-0.846D-01-0.238D+00 0.129D+01
 Coeff:     -0.206D-04 0.211D-03 0.465D-03 0.852D-03-0.322D-02-0.735D-02
 Coeff:      0.258D-01 0.166D-01-0.846D-01-0.238D+00 0.129D+01
 Gap=     0.533 Goal=   None    Shift=    0.000
 RMSDP=2.69D-07 MaxDP=1.02D-05 DE=-2.97D-08 OVMax= 3.19D-05

 Cycle  12  Pass 1  IDiag  1:
 E= -279.504363623063     Delta-E=       -0.000000003748 Rises=F Damp=F
 DIIS: error= 9.18D-07 at cycle  12 NSaved=  12.
 NSaved=12 IEnMin=12 EnMin= -279.504363623063     IErMin=12 ErrMin= 9.18D-07
 ErrMax= 9.18D-07  0.00D+00 EMaxC= 1.00D-01 BMatC= 1.22D-10 BMatP= 1.06D-09
 IDIUse=1 WtCom= 1.00D+00 WtEn= 0.00D+00
 Coeff-Com:  0.243D-05-0.455D-04-0.103D-03 0.240D-03 0.126D-02-0.138D-02
 Coeff-Com: -0.768D-02 0.856D-02 0.469D-01-0.153D+00-0.132D+00 0.124D+01
 Coeff:      0.243D-05-0.455D-04-0.103D-03 0.240D-03 0.126D-02-0.138D-02
 Coeff:     -0.768D-02 0.856D-02 0.469D-01-0.153D+00-0.132D+00 0.124D+01
 Gap=     0.533 Goal=   None    Shift=    0.000
 RMSDP=9.98D-08 MaxDP=3.42D-06 DE=-3.75D-09 OVMax= 1.21D-05

 Cycle  13  Pass 1  IDiag  1:
 E= -279.504363623497     Delta-E=       -0.000000000434 Rises=F Damp=F
 DIIS: error= 1.91D-07 at cycle  13 NSaved=  13.
 NSaved=13 IEnMin=13 EnMin= -279.504363623497     IErMin=13 ErrMin= 1.91D-07
 ErrMax= 1.91D-07  0.00D+00 EMaxC= 1.00D-01 BMatC= 1.06D-11 BMatP= 1.22D-10
 IDIUse=1 WtCom= 1.00D+00 WtEn= 0.00D+00
 Coeff-Com:  0.152D-05-0.149D-04-0.228D-04-0.139D-03 0.914D-04 0.103D-02
 Coeff-Com: -0.144D-02-0.261D-02-0.866D-03 0.554D-01-0.127D+00-0.183D+00
 Coeff-Com:  0.126D+01
 Coeff:      0.152D-05-0.149D-04-0.228D-04-0.139D-03 0.914D-04 0.103D-02
 Coeff:     -0.144D-02-0.261D-02-0.866D-03 0.554D-01-0.127D+00-0.183D+00
 Coeff:      0.126D+01
 Gap=     0.533 Goal=   None    Shift=    0.000
 RMSDP=2.74D-08 MaxDP=8.52D-07 DE=-4.34D-10 OVMax= 2.63D-06

 Cycle  14  Pass 1  IDiag  1:
 E= -279.504363623526     Delta-E=       -0.000000000029 Rises=F Damp=F
 DIIS: error= 4.74D-08 at cycle  14 NSaved=  14.
 NSaved=14 IEnMin=14 EnMin= -279.504363623526     IErMin=14 ErrMin= 4.74D-08
 ErrMax= 4.74D-08  0.00D+00 EMaxC= 1.00D-01 BMatC= 6.16D-13 BMatP= 1.06D-11
 IDIUse=1 WtCom= 1.00D+00 WtEn= 0.00D+00
 Coeff-Com: -0.291D-06 0.447D-05 0.906D-05-0.657D-05-0.119D-03 0.843D-04
 Coeff-Com:  0.653D-03-0.336D-03-0.377D-02 0.851D-02 0.174D-01-0.790D-01
 Coeff-Com: -0.638D-01 0.112D+01
 Coeff:     -0.291D-06 0.447D-05 0.906D-05-0.657D-05-0.119D-03 0.843D-04
 Coeff:      0.653D-03-0.336D-03-0.377D-02 0.851D-02 0.174D-01-0.790D-01
 Coeff:     -0.638D-01 0.112D+01
 Gap=     0.533 Goal=   None    Shift=    0.000
 RMSDP=5.14D-09 MaxDP=1.25D-07 DE=-2.92D-11 OVMax= 5.32D-07

 SCF Done:  E(RHF) =  -279.504363624     A.U. after   14 cycles
            NFock= 14  Conv=0.51D-08     -V/T= 2.0024
 KE= 2.788369289440D+02 PE=-9.057022197600D+02 EE= 2.249250261743D+02
 Leave Link  502 at Sun Mar  6 19:13:11 2022, MaxMem= 16106127360 cpu:              56.8 elap:               3.7
 (Enter /sw/contrib/gaussian/g16/B01/g16/l801.exe)
 ExpMin= 2.53D-02 ExpMax= 1.53D+04 ExpMxC= 5.22D+02 IAcc=3 IRadAn=         5 AccDes= 0.00D+00
 HarFok:  IExCor=  205 AccDes= 0.00D+00 IRadAn=         5 IDoV=-2 UseB2=F ITyADJ=14
 ICtDFT= 12500011 ScaDFX=  1.000000  1.000000  1.000000  1.000000
 Largest valence mixing into a core orbital is  2.08D-04
 Largest core mixing into a valence orbital is  3.13D-05
 Range of M.O.s used for correlation:     5   207
 NBasis=   207 NAE=    16 NBE=    16 NFC=     4 NFV=     0
 NROrb=    203 NOA=    12 NOB=    12 NVA=   191 NVB=   191

 **** Warning!!: The largest alpha MO coefficient is  0.16114995D+02

 Leave Link  801 at Sun Mar  6 19:13:11 2022, MaxMem= 16106127360 cpu:               2.2 elap:               0.1
 (Enter /sw/contrib/gaussian/g16/B01/g16/l906.exe)
 Frozen-core derivative calculation, NFC=   4 NFV=   0.
 FulOut=F Deriv=T AODrv=T NAtomX=     5
   MMem=           0  MDisk=          12 MDiskD=          12
  W3Min=      811440 MinDsk=     2425030 NBas6D=         245
 NBas2D=       30762    NTT=       30135    LW2=     7400000
    MDV= 16105571588 MDiskM=      328644 NBas2p=       30759
 Disk-based method using ON**2 memory for 12 occupieds at a time.
 Permanent disk used for amplitudes=    11516536 words.
 Estimated scratch disk usage=   321863743 words.
 IMap=   1   2   3   4   5   6   7   8   9  10  11  12  13  14  15  16
 Actual    scratch disk usage=   310892607 words.
 JobTyp=1 Pass  1:  I=   5 to  16 NPSUse= 28 ParTrn=T ParDer=T DoDerP=T.
 (rs|ai) integrals will be sorted in core.
 Spin components of T(2) and E(2):
     alpha-alpha T2 =       0.3504510550D-01 E2=     -0.1248153043D+00
     alpha-beta  T2 =       0.1857639810D+00 E2=     -0.7010970527D+00
     beta-beta   T2 =       0.3504510550D-01 E2=     -0.1248153043D+00
 The integrals were generated   1 times.
 ANorm=    0.1120649005D+01
 E2 =    -0.9507276613D+00 EUMP2 =    -0.28045509128482D+03
 Leave Link  906 at Sun Mar  6 19:14:48 2022, MaxMem= 16106127360 cpu:            2712.6 elap:              97.0
 (Enter /sw/contrib/gaussian/g16/B01/g16/l1101.exe)
 Using compressed Sx but separate Hx and Fx, NAtomX=     5.
 Will process      6 centers per pass.
 Leave Link 1101 at Sun Mar  6 19:14:48 2022, MaxMem= 16106127360 cpu:               5.3 elap:               0.2
 (Enter /sw/contrib/gaussian/g16/B01/g16/l1102.exe)
 Leave Link 1102 at Sun Mar  6 19:14:48 2022, MaxMem= 16106127360 cpu:               0.9 elap:               0.1
 (Enter /sw/contrib/gaussian/g16/B01/g16/l1110.exe)
 Forming Gx(P) for the SCF density, NAtomX=     5.
 Integral derivatives from FoFJK, PRISM(SPDF).
 Do as many integral derivatives as possible in FoFJK.
 G2DrvN: MDV=   16106126844.
 G2DrvN: will do     6 centers at a time, making    1 passes.
 Calling FoFCou, ICntrl=  3107 FMM=F I1Cent=   0 AccDes= 0.00D+00.
 FoFJK:  IHMeth= 1 ICntrl=    3107 DoSepK=F KAlg= 0 I1Cent=           0 FoldK=F
 IRaf=         0 NMat=       1 IRICut=       1 DoRegI=T DoRafI=F ISym2E= 1 IDoP0=0 IntGTp=1.
 FoFCou: FMM=F IPFlag=           0 FMFlag=      100000 FMFlg1=           0
         NFxFlg=           0 DoJE=F BraDBF=F KetDBF=F FulRan=T
         wScrn=  0.000000 ICntrl=      3107 IOpCl=  0 I1Cent=           0 NGrid=           0
         NMat0=    1 NMatS0=      1 NMatT0=    0 NMatD0=    1 NMtDS0=    0 NMtDT0=    0
 Petite list used in FoFCou.
 End of G2Drv F.D. properties file   721 does not exist.
 End of G2Drv F.D. properties file   722 does not exist.
 End of G2Drv F.D. properties file   788 does not exist.
 Leave Link 1110 at Sun Mar  6 19:14:51 2022, MaxMem= 16106127360 cpu:              86.9 elap:               3.1
 (Enter /sw/contrib/gaussian/g16/B01/g16/l1002.exe)
 Minotr:  Closed shell wavefunction.
          IDoAtm=11111
          Frozen-core window.
          Direct CPHF calculation.
          Differentiating once with respect to electric field.
                with respect to dipole field.
          Differentiating once with respect to nuclear coordinates.
          Requested convergence is 1.0D-08 RMS, and 1.0D-07 maximum.
          Secondary convergence is 1.0D-12 RMS, and 1.0D-12 maximum.
          NewPWx=T KeepS1=T KeepF1=T KeepIn=T MapXYZ=F SortEE=F KeepMc=T.
 Keep R1 ints in memory in symmetry-blocked form, NReq=348888983.
 FoFCou: FMM=F IPFlag=           0 FMFlag=           0 FMFlg1=           0
         NFxFlg=           0 DoJE=F BraDBF=F KetDBF=F FulRan=T
         wScrn=  0.000000 ICntrl=       600 IOpCl=  0 I1Cent=           0 NGrid=           0
         NMat0=    1 NMatS0=  21528 NMatT0=    0 NMatD0=    1 NMtDS0=    0 NMtDT0=    0
 Petite list used in FoFCou.
          MDV=   16106127360 using IRadAn=       1.
          Solving linear equations simultaneously, MaxMat=       0.
          There are    18 degrees of freedom in the 1st order CPHF.  IDoFFX=6 NUNeed=    18.
     15 vectors produced by pass  0 Test12= 1.70D-14 5.56D-09 XBig12= 8.05D+00 1.27D+00.
 AX will form    15 AO Fock derivatives at one time.
     15 vectors produced by pass  1 Test12= 1.70D-14 5.56D-09 XBig12= 1.39D+00 2.32D-01.
     15 vectors produced by pass  2 Test12= 1.70D-14 5.56D-09 XBig12= 6.77D-02 5.82D-02.
     15 vectors produced by pass  3 Test12= 1.70D-14 5.56D-09 XBig12= 1.93D-03 1.01D-02.
     15 vectors produced by pass  4 Test12= 1.70D-14 5.56D-09 XBig12= 4.09D-05 1.25D-03.
     15 vectors produced by pass  5 Test12= 1.70D-14 5.56D-09 XBig12= 5.73D-07 1.11D-04.
     15 vectors produced by pass  6 Test12= 1.70D-14 5.56D-09 XBig12= 4.50D-09 1.09D-05.
     14 vectors produced by pass  7 Test12= 1.70D-14 5.56D-09 XBig12= 3.48D-11 7.73D-07.
      3 vectors produced by pass  8 Test12= 1.70D-14 5.56D-09 XBig12= 2.45D-13 6.19D-08.
      1 vectors produced by pass  9 Test12= 1.70D-14 5.56D-09 XBig12= 1.71D-15 6.43D-09.
 InvSVY:  IOpt=1 It=  1 EMax= 1.11D-15
 Solved reduced A of dimension   123 with    15 vectors.
 FullF1:  Do perturbations      1 to      18.
 Saving first derivative matrices.
 End of Minotr F.D. properties file   721 does not exist.
 End of Minotr F.D. properties file   722 does not exist.
 End of Minotr F.D. properties file   788 does not exist.
 Leave Link 1002 at Sun Mar  6 19:14:54 2022, MaxMem= 16106127360 cpu:              76.8 elap:               2.9
 (Enter /sw/contrib/gaussian/g16/B01/g16/l811.exe)
 MDV= 16106127360.
 Form MO integral derivatives with frozen-active canonical formalism.
 MOERI=1 MOERIx=1 NAtoms=     5 NAtomX=     5.
 Discarding MO integrals.
 MO basis two electron integral derivatives will not be stored on disk.
 IAlg= 3 DoFC=T DoPWx=T Debug=F.
 Frozen-core window:  NFC=   4 NFV=   0.
 Reordered first order wavefunction length =     18678272
 In DefCFB: NBatch=  1 ICI= 16 ICA=191 LFMax= 96
            Large arrays: LIAPS=   619940160 LIARS=   288257200 words.
 In StABat: MaxSiz= 55 MinSiz= 25 NAtomB=  5
 DoIAMN: NPSUse= 28.
 Leave Link  811 at Sun Mar  6 19:16:15 2022, MaxMem= 16106127360 cpu:            2244.9 elap:              80.4
 (Enter /sw/contrib/gaussian/g16/B01/g16/l804.exe)
 Frozen-core window:  NFC=   4 NFV=   0.
 Closed-shell transformation, MDV= 16106127360 ITran=4 ISComp=1.
 Semi-Direct transformation.
 ModeAB=           2 MOrb=            16 LenV=   16104919981
 LASXX=     67341636 LTotXX=    67341636 LenRXX=    67341636
 LTotAB=    68301760 MaxLAS=    99807120 LenRXY=    99807120
 NonZer=   134683272 LenScr=   202817536 LnRSAI=           0
 LnScr1=           0 LExtra=           0 Total=    369966292
 MaxDsk=          -1 SrtSym=           F ITran=            4
 DoSDTr:  NPSUse= 28
 JobTyp=0 Pass  1:  I=   1 to  16.
 (rs|ai) integrals will be sorted in core.
 Complete sort for first half transformation.
 First half transformation complete.
 Begin second half transformation for I=  10.
 Begin second half transformation for I=  10.
 Complete sort for second half transformation.
 Second half transformation complete.
 Spin components of T(2) and E(2):
     alpha-alpha T2 =       0.3504510550D-01 E2=     -0.1248153043D+00
     alpha-beta  T2 =       0.1857639810D+00 E2=     -0.7010970527D+00
     beta-beta   T2 =       0.3504510550D-01 E2=     -0.1248153043D+00
 ANorm=    0.1584837021D+01
 E2 =    -0.9507276613D+00 EUMP2 =    -0.28045509128482D+03
 Leave Link  804 at Sun Mar  6 19:16:30 2022, MaxMem= 16106127360 cpu:             430.1 elap:              15.4
 (Enter /sw/contrib/gaussian/g16/B01/g16/l1002.exe)
 Minotr:  Closed shell wavefunction.
          Computing MP2/KS-MP2 derivatives.
          Using Z-Vector for PSCF gradient.
          Skipping F1 and S1 gradient terms here.
          IDoAtm=11111
          Frozen-core window.
          Using MO integrals in the linear equations.
          Forming densities via direct SCF.
          Differentiating once with respect to electric field.
                with respect to dipole field.
          Differentiating once with respect to nuclear coordinates.
          Using symmetry in CPHF.
          Requested convergence is 1.0D-10 RMS, and 1.0D-09 maximum.
          NewPWx=F KeepS1=T KeepF1=T KeepIn=T MapXYZ=F SortEE=F KeepMc=T.
          MDV=   16106127360 using IRadAn=       5.
          Solving linear equations separately, MaxMat=       0.
          There are     1 degrees of freedom in the 1st order CPHF.  IDoFFX=0 NUNeed=     1.
 FoFJK:  IHMeth= 1 ICntrl=       0 DoSepK=F KAlg= 0 I1Cent=           0 FoldK=F
 IRaf=         0 NMat=       1 IRICut=       1 DoRegI=T DoRafI=F ISym2E= 0 IDoP0=0 IntGTp=1.
 FoFCou: FMM=F IPFlag=           0 FMFlag=      100000 FMFlg1=           0
         NFxFlg=           0 DoJE=F BraDBF=F KetDBF=F FulRan=T
         wScrn=  0.000000 ICntrl=         0 IOpCl=  0 I1Cent=           0 NGrid=           0
         NMat0=    1 NMatS0=      1 NMatT0=    0 NMatD0=    1 NMtDS0=    0 NMtDT0=    0
 Symmetry not used in FoFCou.
 LinEq1:  Iter=  0 NonCon=     1 RMS=6.67D-03 Max=1.68D-01 NDo=     1
 LinEq1:  Iter=  1 NonCon=     1 RMS=2.05D-03 Max=3.18D-02 NDo=     1
 LinEq1:  Iter=  2 NonCon=     1 RMS=9.14D-04 Max=1.49D-02 NDo=     1
 LinEq1:  Iter=  3 NonCon=     1 RMS=3.96D-04 Max=8.73D-03 NDo=     1
 LinEq1:  Iter=  4 NonCon=     1 RMS=1.43D-04 Max=1.72D-03 NDo=     1
 LinEq1:  Iter=  5 NonCon=     1 RMS=8.05D-05 Max=1.40D-03 NDo=     1
 LinEq1:  Iter=  6 NonCon=     1 RMS=2.51D-05 Max=3.02D-04 NDo=     1
 LinEq1:  Iter=  7 NonCon=     1 RMS=8.71D-06 Max=1.20D-04 NDo=     1
 LinEq1:  Iter=  8 NonCon=     1 RMS=4.21D-06 Max=6.78D-05 NDo=     1
 LinEq1:  Iter=  9 NonCon=     1 RMS=1.10D-06 Max=1.28D-05 NDo=     1
 LinEq1:  Iter= 10 NonCon=     1 RMS=2.45D-07 Max=3.07D-06 NDo=     1
 LinEq1:  Iter= 11 NonCon=     1 RMS=5.26D-08 Max=8.24D-07 NDo=     1
 LinEq1:  Iter= 12 NonCon=     1 RMS=1.24D-08 Max=1.77D-07 NDo=     1
 LinEq1:  Iter= 13 NonCon=     1 RMS=2.19D-09 Max=2.68D-08 NDo=     1
 LinEq1:  Iter= 14 NonCon=     1 RMS=4.52D-10 Max=6.02D-09 NDo=     1
 LinEq1:  Iter= 15 NonCon=     0 RMS=9.28D-11 Max=9.86D-10 NDo=     1
 Linear equations converged to 1.000D-10 1.000D-09 after    15 iterations.
 End of Minotr F.D. properties file   721 does not exist.
 End of Minotr F.D. properties file   722 does not exist.
 End of Minotr F.D. properties file   788 does not exist.
 Leave Link 1002 at Sun Mar  6 19:16:32 2022, MaxMem= 16106127360 cpu:              65.7 elap:               2.4
 (Enter /sw/contrib/gaussian/g16/B01/g16/l1102.exe)
 Use density number 2.
 Symmetrizing basis deriv contribution to polar:
 IMax=3 JMax=2 DiffMx= 0.00D+00
 Leave Link 1102 at Sun Mar  6 19:16:33 2022, MaxMem= 16106127360 cpu:               1.5 elap:               0.1
 (Enter /sw/contrib/gaussian/g16/B01/g16/l1110.exe)
 Forming Gx(P) for generalized density number  2 NAtomX=     5.
 Integral derivatives from FoFJK, PRISM(SPDF).
 Do as many integral derivatives as possible in FoFJK.
 G2DrvN: MDV=   16106126844.
 G2DrvN: will do     6 centers at a time, making    1 passes.
 Calling FoFCou, ICntrl=  3107 FMM=F I1Cent=   0 AccDes= 0.00D+00.
 FoFJK:  IHMeth= 1 ICntrl=    3107 DoSepK=F KAlg= 0 I1Cent=           0 FoldK=F
 IRaf=         0 NMat=       1 IRICut=       1 DoRegI=T DoRafI=F ISym2E= 1 IDoP0=0 IntGTp=1.
 FoFCou: FMM=F IPFlag=           0 FMFlag=      100000 FMFlg1=           0
         NFxFlg=           0 DoJE=F BraDBF=F KetDBF=F FulRan=T
         wScrn=  0.000000 ICntrl=      3107 IOpCl=  0 I1Cent=           0 NGrid=           0
         NMat0=    1 NMatS0=      1 NMatT0=    0 NMatD0=    1 NMtDS0=    0 NMtDT0=    0
 Petite list used in FoFCou.
 End of G2Drv F.D. properties file   721 does not exist.
 End of G2Drv F.D. properties file   722 does not exist.
 End of G2Drv F.D. properties file   788 does not exist.
 Leave Link 1110 at Sun Mar  6 19:16:36 2022, MaxMem= 16106127360 cpu:              87.5 elap:               3.2
 (Enter /sw/contrib/gaussian/g16/B01/g16/l1112.exe)
 MP22nd: MDV=   16106127360
 This link is doing NAtomX=     5 total of    18 degrees of freedom.
 Using ON3 I/O method in MakUI.
 Frozen-core window:  NFC=   4 NFV=   0.
 Using Ix for Sx.
 Use MO integrals over full window.
 Using OV2 memory method for fx*t*t/D, MaxI=    16 DoOO2=F NP=  28.
 R2 and R3 integrals will be kept in memory, NReq=   915591705.
 FoFCou: FMM=F IPFlag=           0 FMFlag=           0 FMFlg1=           0
         NFxFlg=           0 DoJE=F BraDBF=F KetDBF=F FulRan=T
         wScrn=  0.000000 ICntrl=       600 IOpCl=  0 I1Cent=           0 NGrid=           0
         NMat0=    1 NMatS0=      1 NMatT0=    0 NMatD0=    1 NMtDS0=    0 NMtDT0=    0
 Symmetry not used in FoFCou.
 DD1Dir will call FoFMem   1 times, MxPair=       272
 NAB=   136 NAA=     0 NBB=     0.
 Symmetry is being used.
 FoFJK:  IHMeth= 1 ICntrl=       0 DoSepK=F KAlg= 0 I1Cent=           0 FoldK=F
 IRaf=         0 NMat=      18 IRICut=      45 DoRegI=T DoRafI=T ISym2E= 2 IDoP0=3 IntGTp=3.
 Discarding MO integrals.
 Leave Link 1112 at Sun Mar  6 19:17:10 2022, MaxMem= 16106127360 cpu:             946.7 elap:              34.2
 (Enter /sw/contrib/gaussian/g16/B01/g16/l601.exe)
 Copying SCF densities to generalized density rwf, IOpCl= 0 IROHF=0.

 **********************************************************************

            Population analysis using the MP2 Density.

 **********************************************************************

 Orbital symmetries:
       Occupied  (A') (A') (A') (A') (A') (A') (A') (A') (A') (A')
                 (A") (A') (A') (A") (A') (A")
       Virtual   (A') (A") (A') (A') (A") (A') (A') (A') (A") (A')
                 (A") (A') (A') (A') (A") (A') (A') (A") (A') (A')
                 (A') (A') (A') (A') (A") (A') (A') (A") (A') (A')
                 (A') (A") (A") (A') (A') (A') (A") (A') (A") (A')
                 (A") (A") (A') (A') (A") (A') (A') (A") (A') (A')
                 (A') (A") (A') (A') (A") (A') (A") (A') (A") (A')
                 (A') (A') (A") (A') (A') (A") (A') (A") (A') (A')
                 (A") (A') (A") (A") (A') (A') (A") (A') (A') (A')
                 (A") (A') (A') (A") (A') (A") (A") (A') (A') (A')
                 (A') (A') (A") (A") (A') (A') (A") (A") (A') (A')
                 (A") (A') (A") (A') (A") (A') (A') (A') (A") (A")
                 (A') (A') (A') (A') (A") (A') (A') (A') (A") (A')
                 (A") (A') (A") (A') (A") (A") (A') (A") (A') (A')
                 (A') (A') (A") (A') (A') (A") (A") (A') (A') (A')
                 (A") (A") (A') (A') (A') (A") (A') (A') (A') (A")
                 (A') (A') (A') (A") (A') (A") (A") (A') (A') (A")
                 (A') (A") (A') (A") (A") (A') (A') (A") (A") (A")
                 (A') (A") (A") (A') (A') (A") (A') (A') (A") (A')
                 (A') (A') (A') (A') (A') (A') (A') (A') (A') (A')
                 (A')
 The electronic state is 1-A'.
 Alpha  occ. eigenvalues --  -20.72233 -20.68670 -20.66926 -15.82782  -1.63839
 Alpha  occ. eigenvalues --   -1.50234  -1.29487  -0.96203  -0.83239  -0.75662
 Alpha  occ. eigenvalues --   -0.73839  -0.63728  -0.61851  -0.61579  -0.50668
 Alpha  occ. eigenvalues --   -0.49821
 Alpha virt. eigenvalues --    0.03514   0.05682   0.09504   0.10031   0.11997
 Alpha virt. eigenvalues --    0.12250   0.14933   0.15201   0.17720   0.18042
 Alpha virt. eigenvalues --    0.18976   0.21101   0.21665   0.24148   0.24615
 Alpha virt. eigenvalues --    0.26874   0.31260   0.31691   0.33806   0.34253
 Alpha virt. eigenvalues --    0.34604   0.39213   0.44916   0.48794   0.50500
 Alpha virt. eigenvalues --    0.51767   0.54450   0.56161   0.59489   0.61837
 Alpha virt. eigenvalues --    0.63721   0.69125   0.71733   0.72386   0.74122
 Alpha virt. eigenvalues --    0.76432   0.76739   0.79541   0.80564   0.83842
 Alpha virt. eigenvalues --    0.84249   0.85141   0.88410   0.90717   0.92972
 Alpha virt. eigenvalues --    0.94554   0.95424   1.01797   1.03255   1.06333
 Alpha virt. eigenvalues --    1.06585   1.09496   1.14409   1.15641   1.16782
 Alpha virt. eigenvalues --    1.22126   1.22691   1.24526   1.35463   1.36089
 Alpha virt. eigenvalues --    1.37016   1.46819   1.48468   1.50458   1.54281
 Alpha virt. eigenvalues --    1.59606   1.59685   1.60420   1.62783   1.69340
 Alpha virt. eigenvalues --    1.74039   1.79907   1.82978   1.88491   1.89482
 Alpha virt. eigenvalues --    1.93092   1.97815   1.98925   2.05475   2.12144
 Alpha virt. eigenvalues --    2.12984   2.16505   2.18890   2.24327   2.26001
 Alpha virt. eigenvalues --    2.29347   2.35163   2.36529   2.38504   2.39851
 Alpha virt. eigenvalues --    2.43225   2.47054   2.47864   2.53001   2.53695
 Alpha virt. eigenvalues --    2.54669   2.55538   2.61211   2.62967   2.66872
 Alpha virt. eigenvalues --    2.66960   2.75126   2.80738   2.81417   2.83919
 Alpha virt. eigenvalues --    2.91775   2.98177   3.04245   3.04920   3.11415
 Alpha virt. eigenvalues --    3.11935   3.17215   3.21303   3.30614   3.33219
 Alpha virt. eigenvalues --    3.35963   3.47618   3.66877   3.86840   3.93117
 Alpha virt. eigenvalues --    4.18405   4.22067   4.22242   4.24965   4.36876
 Alpha virt. eigenvalues --    4.49571   4.52825   4.54556   4.59778   4.69058
 Alpha virt. eigenvalues --    4.80522   4.89665   4.91464   4.93704   5.00040
 Alpha virt. eigenvalues --    5.00630   5.10445   5.12528   5.17903   5.24039
 Alpha virt. eigenvalues --    5.25690   5.31516   5.34286   5.35729   5.55549
 Alpha virt. eigenvalues --    5.62861   5.70003   5.89308   5.98827   6.26325
 Alpha virt. eigenvalues --    6.29387   6.35886   6.37504   6.59669   6.65768
 Alpha virt. eigenvalues --    6.65805   6.68811   6.72178   6.80100   6.80377
 Alpha virt. eigenvalues --    6.84314   6.96425   7.02025   7.06507   7.07763
 Alpha virt. eigenvalues --    7.13313   7.16935   7.17047   7.19962   7.23313
 Alpha virt. eigenvalues --    7.24546   7.26054   7.34540   7.38596   7.42355
 Alpha virt. eigenvalues --    7.43867   7.45251   7.54177   7.66202   7.66279
 Alpha virt. eigenvalues --    7.78964   7.88008   7.94750   8.05264   8.30604
 Alpha virt. eigenvalues --    8.49932   8.64739  13.59405  14.67735  15.06418
 Alpha virt. eigenvalues --   15.51726
          Condensed to atoms (all electrons):
               1          2          3          4          5
     1  H    0.577212   0.124338   0.024344  -0.000611  -0.004105
     2  O    0.124338   8.389319  -0.229855  -0.000262  -0.010128
     3  O    0.024344  -0.229855   8.363204  -0.167609  -0.030408
     4  N   -0.000611  -0.000262  -0.167609   7.130418  -0.116228
     5  O   -0.004105  -0.010128  -0.030408  -0.116228   8.360894
 Mulliken charges:
               1
     1  H    0.278821
     2  O   -0.273413
     3  O    0.040325
     4  N    0.154292
     5  O   -0.200025
 Sum of Mulliken charges =  -0.00000
 Mulliken charges with hydrogens summed into heavy atoms:
               1
     2  O    0.005408
     3  O    0.040325
     4  N    0.154292
     5  O   -0.200025
 APT charges:
               1
     1  H    0.271993
     2  O   -0.301780
     3  O   -0.304499
     4  N    0.630498
     5  O   -0.296212
 Sum of APT charges =  -0.00000
 APT charges with hydrogens summed into heavy atoms:
               1
     2  O   -0.029788
     3  O   -0.304499
     4  N    0.630498
     5  O   -0.296212
 Electronic spatial extent (au):  <R**2>=            207.8234
 Charge=             -0.0000 electrons
 Dipole moment (field-independent basis, Debye):
    X=              0.0777    Y=             -1.0454    Z=             -0.0000  Tot=              1.0483
 Quadrupole moment (field-independent basis, Debye-Ang):
   XX=            -23.3992   YY=            -22.9559   ZZ=            -21.9555
   XY=             -1.9988   XZ=             -0.0000   YZ=             -0.0000
 Traceless Quadrupole moment (field-independent basis, Debye-Ang):
   XX=             -0.6290   YY=             -0.1857   ZZ=              0.8147
   XY=             -1.9988   XZ=             -0.0000   YZ=             -0.0000
 Octapole moment (field-independent basis, Debye-Ang**2):
  XXX=              2.6599  YYY=              0.3876  ZZZ=             -0.0000  XYY=              2.3936
  XXY=             -2.7615  XXZ=              0.0000  XZZ=             -0.5519  YZZ=             -0.6700
  YYZ=              0.0000  XYZ=             -0.0000
 Hexadecapole moment (field-independent basis, Debye-Ang**3):
 XXXX=           -127.0384 YYYY=            -95.5227 ZZZZ=            -18.0756 XXXY=            -21.6867
 XXXZ=             -0.0000 YYYX=            -19.8973 YYYZ=             -0.0000 ZZZX=             -0.0000
 ZZZY=             -0.0000 XXYY=            -35.8078 XXZZ=            -24.3569 YYZZ=            -18.7116
 XXYZ=             -0.0000 YYXZ=             -0.0000 ZZXY=             -5.9482
 N-N= 1.224359010182D+02 E-N=-9.064016519791D+02  KE= 2.801602841111D+02
 Symmetry A'   KE= 2.663171228826D+02
 Symmetry A"   KE= 1.384316122841D+01
  Exact polarizability:  31.009   4.214  30.099   0.000   0.000  17.651
 Approx polarizability:  24.633   0.497  27.955   0.000   0.000  15.566
 No NMR shielding tensors so no spin-rotation constants.
 Leave Link  601 at Sun Mar  6 19:17:10 2022, MaxMem= 16106127360 cpu:               4.2 elap:               0.2
 (Enter /sw/contrib/gaussian/g16/B01/g16/l701.exe)
 ... and contract with generalized density number  2.
 Compute integral second derivatives.
 Leave Link  701 at Sun Mar  6 19:17:10 2022, MaxMem= 16106127360 cpu:               6.1 elap:               0.2
 (Enter /sw/contrib/gaussian/g16/B01/g16/l702.exe)
 L702 exits ... SP integral derivatives will be done elsewhere.
 Leave Link  702 at Sun Mar  6 19:17:10 2022, MaxMem= 16106127360 cpu:               0.5 elap:               0.0
 (Enter /sw/contrib/gaussian/g16/B01/g16/l703.exe)
 Integral derivatives from FoFJK, PRISM(SPDF).
 Compute integral second derivatives, UseDBF=F ICtDFT=           0.
 Calling FoFJK, ICntrl=  10100127 FMM=F ISym2X=1 I1Cent= 0 IOpClX= 0 NMat=1 NMatS=1 NMatT=0.
 FoFJK:  IHMeth= 1 ICntrl=10100127 DoSepK=F KAlg= 0 I1Cent=           0 FoldK=F
 IRaf=         0 NMat=       1 IRICut=       1 DoRegI=T DoRafI=F ISym2E= 1 IDoP0=0 IntGTp=1.
 FoFCou: FMM=F IPFlag=           0 FMFlag=      100000 FMFlg1=         800
         NFxFlg=           0 DoJE=F BraDBF=F KetDBF=F FulRan=T
         wScrn=  0.000000 ICntrl=  10100127 IOpCl=  0 I1Cent=           0 NGrid=           0
         NMat0=    1 NMatS0=      1 NMatT0=    0 NMatD0=    1 NMtDS0=    0 NMtDT0=    0
 Petite list used in FoFCou.
 Leave Link  703 at Sun Mar  6 19:17:26 2022, MaxMem= 16106127360 cpu:             446.5 elap:              16.0
 (Enter /sw/contrib/gaussian/g16/B01/g16/l716.exe)
 Dipole        = 3.05729723D-02-4.11301707D-01-4.75288888D-33
 Polarizability= 3.10093100D+01 4.21426666D+00 3.00990031D+01
                 3.50438047D-31 4.19472026D-31 1.76509159D+01
 Full mass-weighted force constant matrix:
 Low frequencies ---   -0.0010    0.0009    0.0012   26.3117   58.7910   98.1882
 Low frequencies ---  359.5940  398.2724  533.7059
 Diagonal vibrational polarizability:
        7.1559688       9.8891477      15.7319242
 Harmonic frequencies (cm**-1), IR intensities (KM/Mole), Raman scattering
 activities (A**4/AMU), depolarization ratios for plane and unpolarized
 incident light, reduced masses (AMU), force constants (mDyne/A),
 and normal coordinates:
                      1                      2                      3
                     A"                     A'                     A"
 Frequencies --    359.4835               398.2056               533.4554
 Red. masses --      1.5129                 7.0194                 3.0725
 Frc consts  --      0.1152                 0.6558                 0.5152
 IR Inten    --     64.8660                 8.2141                23.5167
  Atom  AN      X      Y      Z        X      Y      Z        X      Y      Z
     1   1    -0.00  -0.00   0.98    -0.73  -0.25  -0.00    -0.00  -0.00   0.92
     2   8    -0.00  -0.00  -0.11    -0.33  -0.31   0.00    -0.00  -0.00   0.06
     3   8    -0.00   0.00   0.11    -0.07   0.08  -0.00     0.00   0.00  -0.19
     4   7     0.00   0.00  -0.10     0.06   0.10   0.00    -0.00  -0.00   0.28
     5   8     0.00   0.00   0.02     0.39   0.16   0.00     0.00   0.00  -0.17
                      4                      5                      6
                     A'                     A'                     A'
 Frequencies --    715.9648               836.8067               968.2330
 Red. masses --     13.1052                12.4684                 9.8830
 Frc consts  --      3.9580                 5.1441                 5.4588
 IR Inten    --    211.9151                35.4913                13.6527
  Atom  AN      X      Y      Z        X      Y      Z        X      Y      Z
     1   1    -0.38   0.01  -0.00     0.43  -0.16   0.00    -0.62  -0.01  -0.00
     2   8    -0.02  -0.08  -0.00     0.53  -0.21   0.00     0.20  -0.17   0.00
     3   8     0.37   0.58   0.00    -0.38  -0.01  -0.00    -0.37   0.40  -0.00
     4   7    -0.39  -0.46  -0.00    -0.44  -0.07   0.00     0.38   0.06   0.00
     5   8     0.01  -0.10   0.00     0.21   0.29  -0.00    -0.13  -0.29  -0.00
                      7                      8                      9
                     A'                     A'                     A'
 Frequencies --   1424.0623              1517.3867              3486.1330
 Red. masses --      1.5456                 3.6380                 1.0638
 Frc consts  --      1.8468                 4.9352                 7.6171
 IR Inten    --     78.4375               139.7875                42.9812
  Atom  AN      X      Y      Z        X      Y      Z        X      Y      Z
     1   1     0.96  -0.20   0.00    -0.88   0.19  -0.00     0.15   0.99  -0.00
     2   8    -0.07  -0.05   0.00     0.03   0.03  -0.00    -0.01  -0.06   0.00
     3   8    -0.03   0.06  -0.00    -0.02  -0.06   0.00     0.00  -0.00  -0.00
     4   7     0.09  -0.09   0.00     0.17  -0.28  -0.00    -0.00   0.00  -0.00
     5   8    -0.04   0.09  -0.00    -0.10   0.26   0.00     0.00  -0.00   0.00

 -------------------
 - Thermochemistry -
 -------------------
 Temperature   298.150 Kelvin.  Pressure   1.00000 Atm.
 Atom     1 has atomic number  1 and mass   1.00783
 Atom     2 has atomic number  8 and mass  15.99491
 Atom     3 has atomic number  8 and mass  15.99491
 Atom     4 has atomic number  7 and mass  14.00307
 Atom     5 has atomic number  8 and mass  15.99491
 Molecular mass:    62.99564 amu.
 Principal axes and moments of inertia in atomic units:
                           1         2         3
     Eigenvalues --    85.24785 223.05783 308.30568
           X            0.79332  -0.60881   0.00000
           Y            0.60881   0.79332   0.00000
           Z           -0.00000   0.00000   1.00000
 This molecule is an asymmetric top.
 Rotational symmetry number  1.
 Rotational temperatures (Kelvin)      1.01602     0.38830     0.28094
 Rotational constants (GHZ):          21.17052     8.09091     5.85374
 Zero-point vibrational energy      61247.2 (Joules/Mol)
                                   14.63843 (Kcal/Mol)
 Warning -- explicit consideration of   3 degrees of freedom as
           vibrations may cause significant error
 Vibrational temperatures:    517.22   572.93   767.52  1030.11  1203.98
          (Kelvin)           1393.07  2048.91  2183.18  5015.77
 
 Zero-point correction=                           0.023328 (Hartree/Particle)
 Thermal correction to Energy=                    0.027251
 Thermal correction to Enthalpy=                  0.028195
 Thermal correction to Gibbs Free Energy=        -0.002642
 Sum of electronic and zero-point Energies=           -280.431763
 Sum of electronic and thermal Energies=              -280.427841
 Sum of electronic and thermal Enthalpies=            -280.426896
 Sum of electronic and thermal Free Energies=         -280.457733
 
                     E (Thermal)             CV                S
                      KCal/Mol        Cal/Mol-Kelvin    Cal/Mol-Kelvin
 Total                   17.100             12.140             64.902
 Electronic               0.000              0.000              0.000
 Translational            0.889              2.981             38.341
 Rotational               0.889              2.981             23.287
 Vibrational             15.323              6.178              3.274
 Vibration     1          0.734              1.556              1.124
 Vibration     2          0.764              1.474              0.969
 Vibration     3          0.888              1.176              0.580
                       Q            Log10(Q)             Ln(Q)
 Total Bot       0.164137D+02          1.215206          2.798116
 Total V=0       0.881558D+12         11.945251         27.504957
 Vib (Bot)       0.304719D-10        -10.516100        -24.214215
 Vib (Bot)    1  0.510047D+00         -0.292390         -0.673253
 Vib (Bot)    2  0.448185D+00         -0.348542         -0.802548
 Vib (Bot)    3  0.298832D+00         -0.524573         -1.207874
 Vib (V=0)       0.163661D+01          0.213944          0.492625
 Vib (V=0)    1  0.121425D+01          0.084307          0.194124
 Vib (V=0)    2  0.117147D+01          0.068731          0.158258
 Vib (V=0)    3  0.108250D+01          0.034426          0.079269
 Electronic      0.100000D+01          0.000000          0.000000
 Translational   0.196526D+08          7.293420         16.793719
 Rotational      0.274086D+05          4.437887         10.218612
 
                                                                title
                                                             IR Spectrum
 
     3                                                                       1   1                                                   
     4                                                                       5   4               9    8   7      5    33             
     8                                                                       1   2               6    3   1      3    95             
     6                                                                       7   4               8    7   6      3    89             
 
     X                                                                       X   X               X    X   X      X    XX             
     X                                                                       X   X                    X   X      X     X             
     X                                                                       X   X                    X   X            X             
     X                                                                       X   X                        X            X             
                                                                             X   X                        X            X             
                                                                             X   X                        X            X             
                                                                             X   X                        X                          
                                                                             X                            X                          
                                                                             X                            X                          
                                                                             X                            X                          
                                                                             X                            X                          
                                                                             X                            X                          
                                                                             X                            X                          
                                                                                                          X                          
                                                                                                          X                          
                                                                                                          X                          
                                                                                                          X                          
                                                                                                          X                          
                                                                                                          X                          
                                                                                                          X                          
 
 ***** Axes restored to original set *****
 -------------------------------------------------------------------
 Center     Atomic                   Forces (Hartrees/Bohr)
 Number     Number              X              Y              Z
 -------------------------------------------------------------------
      1        1           0.000261217   -0.000000000   -0.000283331
      2        8           0.000039511   -0.000000000    0.000543878
      3        8           0.000691874   -0.000000000   -0.003565208
      4        7          -0.007564757    0.000000000   -0.009405642
      5        8           0.006572154   -0.000000000    0.012710303
 -------------------------------------------------------------------
 Cartesian Forces:  Max     0.012710303 RMS     0.004926607
 -----------------------------------------------------------------------------------------------
                       Internal Coordinate Forces (Hartree/Bohr or radian)
  Cent   Atom   N1       Length/X         N2         Alpha/Y        N3         Beta/Z          J
 -----------------------------------------------------------------------------------------------
      1  H 
      2  O        1   0.000283(     1)
      3  O        2  -0.000344(     2)      1  -0.000487(     5)
      4  N        3  -0.003299(     3)      2   0.000054(     6)      1  -0.000000(     8)     0
      5  O        4  -0.014264(     4)      3  -0.002587(     7)      2  -0.000000(     9)     0
 -----------------------------------------------------------------------------------------------
 Internal  Forces:  Max     0.014263808 RMS     0.004960612
 Force constants in Cartesian coordinates: 
                1             2             3             4             5 
      1  0.720599D-01
      2  0.000000D+00  0.618728D-02
      3  0.244785D-01  0.000000D+00  0.436263D+00
      4 -0.519813D-01  0.000000D+00 -0.455580D-02  0.280435D+00
      5  0.000000D+00 -0.242715D-02  0.000000D+00  0.000000D+00  0.123737D-01
      6  0.320403D-01  0.000000D+00 -0.420164D+00 -0.130799D-01  0.000000D+00
      7 -0.250327D-01  0.000000D+00 -0.159031D-01 -0.170077D+00  0.000000D+00
      8  0.000000D+00 -0.418594D-02  0.000000D+00  0.000000D+00 -0.193679D-01
      9 -0.439258D-01  0.000000D+00 -0.201317D-01  0.111041D-01  0.000000D+00
     10 -0.565687D-02  0.000000D+00  0.624561D-02 -0.838195D-01  0.000000D+00
     11  0.000000D+00  0.797142D-02  0.000000D+00  0.000000D+00  0.199264D-01
     12 -0.189877D-01  0.000000D+00  0.120340D-01  0.105746D-01  0.000000D+00
     13  0.106110D-01  0.000000D+00 -0.102652D-01  0.254435D-01  0.000000D+00
     14  0.000000D+00 -0.754562D-02  0.000000D+00  0.000000D+00 -0.105051D-01
     15  0.639475D-02  0.000000D+00 -0.800093D-02 -0.404304D-02  0.000000D+00
                6             7             8             9            10 
      6  0.522593D+00
      7 -0.906617D-01  0.303967D+00
      8  0.000000D+00  0.000000D+00  0.425410D-01
      9 -0.963012D-01  0.801637D-01  0.000000D+00  0.314961D+00
     10  0.401985D-01 -0.142491D+00  0.000000D+00 -0.354129D-01  0.537639D+00
     11  0.000000D+00  0.000000D+00 -0.485207D-01  0.000000D+00  0.000000D+00
     12 -0.105590D-01  0.185427D-01  0.000000D+00 -0.301424D-01  0.215632D+00
     13  0.315027D-01  0.336342D-01  0.000000D+00 -0.119290D-01 -0.305671D+00
     14  0.000000D+00  0.000000D+00  0.295335D-01  0.000000D+00  0.000000D+00
     15  0.443188D-02  0.785842D-02  0.000000D+00 -0.168386D+00 -0.226663D+00
               11            12            13            14            15 
     11  0.634547D-01
     12  0.000000D+00  0.417549D+00
     13  0.000000D+00 -0.225761D+00  0.235983D+00
     14 -0.428319D-01  0.000000D+00  0.000000D+00  0.313490D-01
     15  0.000000D+00 -0.388881D+00  0.216453D+00  0.000000D+00  0.560836D+00
 Force constants in internal coordinates: 
                1             2             3             4             5 
      1  0.436263D+00
      2  0.225516D-01  0.258210D+00
      3  0.558695D-02  0.169703D-01  0.207571D+00
      4 -0.122165D-01  0.221954D-01  0.142557D+00  0.664348D+00
      5  0.458423D-01  0.561698D-01 -0.246201D-01  0.205489D-01  0.250386D+00
      6  0.130973D-01  0.218561D-01  0.919619D-01  0.931857D-02 -0.988484D-02
      7  0.102283D-01 -0.741548D-01  0.118942D+00  0.115321D+00 -0.238936D-01
      8  0.000000D+00  0.000000D+00  0.000000D+00  0.000000D+00  0.000000D+00
      9  0.000000D+00  0.000000D+00  0.000000D+00  0.000000D+00  0.000000D+00
                6             7             8             9 
      6  0.520162D+00
      7  0.630735D-01  0.655434D+00
      8  0.000000D+00  0.000000D+00  0.213207D-01
      9  0.000000D+00  0.000000D+00  0.286736D-01  0.109144D+00
 Leave Link  716 at Sun Mar  6 19:17:26 2022, MaxMem= 16106127360 cpu:               0.8 elap:               0.1
 (Enter /sw/contrib/gaussian/g16/B01/g16/l103.exe)

 GradGradGradGradGradGradGradGradGradGradGradGradGradGradGradGradGradGrad
 Berny optimization.
 Search for a local minimum.
 Step number   1 out of a maximum of    2
 All quantities printed in internal units (Hartrees-Bohrs-Radians)
 Second derivative matrix not updated -- analytic derivatives used.
 The second derivative matrix:
                          r1        r2        r3        r4        a1
           r1           0.43626
           r2           0.02255   0.25821
           r3           0.00559   0.01697   0.20757
           r4          -0.01222   0.02220   0.14256   0.66435
           a1           0.04584   0.05617  -0.02462   0.02055   0.25039
           a2           0.01310   0.02186   0.09196   0.00932  -0.00988
           a3           0.01023  -0.07415   0.11894   0.11532  -0.02389
           d1          -0.00000  -0.00000  -0.00000   0.00000   0.00000
           d2          -0.00000   0.00000   0.00000   0.00000   0.00000
                          a2        a3        d1        d2
           a2           0.52016
           a3           0.06307   0.65543
           d1          -0.00000   0.00000   0.02132
           d2           0.00000  -0.00000   0.02867   0.10914
 ITU=  0
     Eigenvalues ---    0.01279   0.11768   0.12488   0.20294   0.27277
     Eigenvalues ---    0.44895   0.51259   0.58106   0.84918
 Angle between quadratic step and forces=  13.42 degrees.
 Linear search not attempted -- first point.
 Variable       Old X    -DE/DX   Delta X   Delta X   Delta X     New X
                                 (Linear)    (Quad)   (Total)
    r1        1.86209   0.00028   0.00000   0.00008   0.00008   1.86217
    r2        2.69614  -0.00034   0.00000   0.00068   0.00068   2.69682
    r3        2.60992  -0.00330   0.00000  -0.00192  -0.00192   2.60799
    r4        2.27885  -0.01426   0.00000  -0.02109  -0.02109   2.25776
    a1        1.75642  -0.00049   0.00000  -0.00053  -0.00053   1.75589
    a2        1.97463   0.00005   0.00000   0.00077   0.00077   1.97540
    a3        1.99550  -0.00259   0.00000   0.00009   0.00009   1.99560
    d1        0.00000  -0.00000   0.00000  -0.00000  -0.00000  -0.00000
    d2        0.00000  -0.00000   0.00000  -0.00000  -0.00000  -0.00000
         Item               Value     Threshold  Converged?
 Maximum Force            0.014264     0.000450     NO 
 RMS     Force            0.004961     0.000300     NO 
 Maximum Displacement     0.021090     0.001800     NO 
 RMS     Displacement     0.007070     0.001200     NO 
 Predicted change in Energy=-1.535042D-04
                       ----------------------------
                       ! Non-Optimized Parameters !
                       ! (Angstroms and Degrees)  !
 ----------------------                            ----------------------
 !      Name          Value   Derivative information (Atomic Units)     !
 ------------------------------------------------------------------------
 !       r1          0.9854   -DE/DX =    0.0003                        !
 !       r2          1.4271   -DE/DX =   -0.0003                        !
 !       r3          1.3801   -DE/DX =   -0.0033                        !
 !       r4          1.1948   -DE/DX =   -0.0143                        !
 !       a1        100.6052   -DE/DX =   -0.0005                        !
 !       a2        113.1819   -DE/DX =    0.0001                        !
 !       a3        114.3394   -DE/DX =   -0.0026                        !
 !       d1          0.0      -DE/DX =    0.0                           !
 !       d2          0.0      -DE/DX =    0.0                           !
 ------------------------------------------------------------------------
 GradGradGradGradGradGradGradGradGradGradGradGradGradGradGradGradGradGrad

 Leave Link  103 at Sun Mar  6 19:17:27 2022, MaxMem= 16106127360 cpu:               1.3 elap:               0.1
 (Enter /sw/contrib/gaussian/g16/B01/g16/l9999.exe)

 ----------------------------------------------------------------------

 Electric dipole moment (input orientation):
 (Debye = 10**-18 statcoulomb cm , SI units = C m)
                  (au)            (Debye)         (10**-30 SI)
   Tot        0.412436D+00      0.104831D+01      0.349678D+01
   x         -0.116550D+00     -0.296240D+00     -0.988151D+00
   y          0.000000D+00      0.000000D+00      0.000000D+00
   z         -0.395626D+00     -0.100558D+01     -0.335426D+01

 Dipole polarizability, Alpha (input orientation).
 (esu units = cm**3 , SI units = C**2 m**2 J**-1)
 Alpha(0;0):
               (au)            (10**-24 esu)      (10**-40 SI)
   iso        0.262531D+02      0.389030D+01      0.432855D+01
   aniso      0.148457D+02      0.219991D+01      0.244773D+01
   xx         0.292328D+02      0.433186D+01      0.481984D+01
   yx         0.000000D+00      0.000000D+00      0.000000D+00
   yy         0.176509D+02      0.261560D+01      0.291024D+01
   zx        -0.402757D+01     -0.596824D+00     -0.664056D+00
   zy         0.000000D+00      0.000000D+00      0.000000D+00
   zz         0.318755D+02      0.472346D+01      0.525556D+01

 ----------------------------------------------------------------------

 Dipole orientation:
     1          0.00000000         -0.00000000         -0.00000000
     8         -0.52620599         -0.00000000         -1.78619534
     8          1.87499890         -0.00000000         -3.01232513
     7          3.87980492          0.00000000         -1.34127453
     8          3.27165110          0.00000000          0.85492544

 Electric dipole moment (dipole orientation):
 (Debye = 10**-18 statcoulomb cm , SI units = C m)
                  (au)            (Debye)         (10**-30 SI)
   Tot        0.412436D+00      0.104831D+01      0.349678D+01
   x          0.000000D+00      0.000000D+00      0.000000D+00
   y          0.000000D+00      0.000000D+00      0.000000D+00
   z          0.412436D+00      0.104831D+01      0.349678D+01

 Dipole polarizability, Alpha (dipole orientation).
 (esu units = cm**3 , SI units = C**2 m**2 J**-1)
 Alpha(0;0):
               (au)            (10**-24 esu)      (10**-40 SI)
   iso        0.262531D+02      0.389030D+01      0.432855D+01
   aniso      0.148457D+02      0.219991D+01      0.244773D+01
   xx         0.316274D+02      0.468669D+01      0.521465D+01
   yx         0.000000D+00      0.000000D+00      0.000000D+00
   yy         0.176509D+02      0.261560D+01      0.291024D+01
   zx         0.410066D+01      0.607655D+00      0.676107D+00
   zy         0.000000D+00      0.000000D+00      0.000000D+00
   zz         0.294809D+02      0.436862D+01      0.486075D+01

 ----------------------------------------------------------------------
 1\1\GINC-N2108\Freq\RMP2-FC\Aug-CC-pVTZ\H1N1O3\CGAVINH\06-Mar-2022\1\\
 #p freq mp2/aug-cc-pvtz density=current\\title\\0,1\H\O,1,r1\O,2,r2,1,
 a1\N,3,r3,2,a2,1,d1,0\O,4,r4,3,a3,2,d2,0\\r1=0.98537664\r2=1.42673666\
 r3=1.38110764\r4=1.2059141\a1=100.6355057\a2=113.13777052\a3=114.33392
 022\d1=0.\d2=0.\\Version=ES64L-G16RevB.01\State=1-A'\HF=-279.5043636\M
 P2=-280.4550913\RMSD=5.145e-09\RMSF=4.927e-03\ZeroPoint=0.0233278\Ther
 mal=0.0272507\Dipole=-0.1165498,0.,-0.395626\DipoleDeriv=0.3171784,0.,
 0.0382418,0.,0.2980064,0.,-0.023923,0.,0.2007937,-0.5291639,0.,0.28536
 58,0.,-0.2530225,0.,-0.1063273,0.,-0.1231549,0.0121609,0.,0.3278016,0.
 ,-0.0055674,0.,0.441608,0.,-0.9200908,0.1953462,0.,-0.1513176,0.,0.010
 2831,0.,-0.6644216,0.,1.6858659,0.0044784,0.,-0.5000916,0.,-0.0496996,
 0.,0.3530639,0.,-0.8434138\Polar=29.2328335,0.,17.6509159,-4.0275692,0
 .,31.8754797\Quadrupole=0.1591579,0.605695,-0.7648529,0.,1.421986,0.\P
 G=CS [SG(H1N1O3)]\NImag=0\\0.07205992,0.,0.00618728,0.02447845,0.,0.43
 626298,-0.05198128,0.,-0.00455580,0.28043472,0.,-0.00242715,0.,0.,0.01
 237368,0.03204034,0.,-0.42016437,-0.01307987,0.,0.52259266,-0.02503273
 ,0.,-0.01590309,-0.17007738,0.,-0.09066166,0.30396701,0.,-0.00418594,0
 .,0.,-0.01936792,0.,0.,0.04254105,-0.04392585,0.,-0.02013165,0.0111040
 7,0.,-0.09630121,0.08016367,0.,0.31496127,-0.00565687,0.,0.00624561,-0
 .08381954,0.,0.04019848,-0.14249105,0.,-0.03541292,0.53763871,0.,0.007
 97142,0.,0.,0.01992645,0.,0.,-0.04852073,0.,0.,0.06345474,-0.01898769,
 0.,0.01203397,0.01057464,0.,-0.01055897,0.01854265,0.,-0.03014243,0.21
 563150,0.,0.41754868,0.01061096,0.,-0.01026518,0.02544348,0.,0.0315027
 0,0.03363416,0.,-0.01192898,-0.30567125,0.,-0.22576110,0.23598266,0.,-
 0.00754562,0.,0.,-0.01050506,0.,0.,0.02953354,0.,0.,-0.04283188,0.,0.,
 0.03134902,0.00639475,0.,-0.00800093,-0.00404304,0.,0.00443188,0.00785
 842,0.,-0.16838597,-0.22666268,0.,-0.38888125,0.21645255,0.,0.56083628
 \\-0.00026122,0.,0.00028333,-0.00003951,0.,-0.00054388,-0.00069187,0.,
 0.00356521,0.00756476,0.,0.00940564,-0.00657215,0.,-0.01271030\\\@


 I MET A TRAVELLER FROM AN ANTIQUE LAND
 WHO SAID... TWO VAST AND TRUNKLESS LEGS OF STONE
 STAND IN THE DESERT..... NEAR THEM,  ON THE SAND,
 HALF SUNK,  A SHATTERED VISAGE LIES,  WHOSE FROWN,
 AND WRINKLED LIP,  AND SNEER OF COLD COMMAND
 TELL THAT ITS SCULPTOR WELL THOSE PASSIONS READ
 WHICH YET SURVIVE,  STAMPED ON THESE LIFELESS THINGS
 THE HAND THAT MOCKED THEM,  AND THE HEART THAT FED-
 AND ON THE PEDESTAL THESE WORDS APPEAR 
 MY NAME IS OZYMANDIAS, KING OF KINGS--   
 LOOK ON MY WORKS YE MIGHTY AND DESPAIR. 
 NOTHING BESIDE REMAINS,  ROUND THE DECAY 
 OF THAT COLOSSAL WRECK,  BOUNDLESS AND BARE
 THE LONE AND LEVEL SANDS STRETCH FAR AWAY.
                                    SHELLEY
 Job cpu time:       0 days  2 hours  0 minutes  2.3 seconds.
 Elapsed time:       0 days  0 hours  4 minutes 20.5 seconds.
 File lengths (MBytes):  RWF=   7239 Int=      0 D2E=      0 Chk=      8 Scr=      1
 Normal termination of Gaussian 16 at Sun Mar  6 19:17:28 2022.
