title                                                                   
Freq      RMP2-FC                                                     Aug-CC-pVTZ         
Number of atoms                            I                5
Info1-9                                    I   N=           9
          33          24           0           0           0         100
           6           2           1
Full Title                                 C   N=           1
title       
Route                                      C   N=           4
#p freq mp2/aug-cc-pvtz density=current         
Charge                                     I                0
Multiplicity                               I                1
Number of electrons                        I               32
Number of alpha electrons                  I               16
Number of beta electrons                   I               16
Number of basis functions                  I              207
Number of independent functions            I              207
Number of point charges in /Mol/           I                0
Number of translation vectors              I                0
Atomic numbers                             I   N=           5
           1           8           8           7           8
Nuclear charges                            R   N=           5
  1.00000000E+00  8.00000000E+00  8.00000000E+00  7.00000000E+00  8.00000000E+00
Current cartesian coordinates              R   N=          15
  1.03659030E+00 -2.14517903E+00  2.20969827E-01  2.41255985E+00 -9.14937690E-01
 -2.52019701E-02  1.02502549E+00  1.39653410E+00  6.82524211E-03 -1.56051483E+00
  1.04067534E+00  8.59044092E-03 -2.20170866E+00 -1.12403995E+00 -1.67611361E-02
Number of symbols in /Mol/                 I                0
Force Field                                I                0
Atom Types                                 C   N=           5
                                                            
Int Atom Types                             I   N=           5
           0           0           0           0           0
MM charges                                 R   N=           5
  0.00000000E+00  0.00000000E+00  0.00000000E+00  0.00000000E+00  0.00000000E+00
Integer atomic weights                     I   N=           5
           1          16          16          14          16
Real atomic weights                        R   N=           5
  1.00782504E+00  1.59949146E+01  1.59949146E+01  1.40030740E+01  1.59949146E+01
Atom fragment info                         I   N=           5
           0           0           0           0           0
Atom residue num                           I   N=           5
           0           0           0           0           0
Nuclear spins                              I   N=           5
           1           0           0           2           0
Nuclear ZEff                               R   N=           5
 -1.00000000E+00 -5.60000000E+00 -5.60000000E+00 -4.55000000E+00 -5.60000000E+00
Nuclear ZNuc                               R   N=           5
  1.00000000E+00  8.00000000E+00  8.00000000E+00  7.00000000E+00  8.00000000E+00
Nuclear QMom                               R   N=           5
  0.00000000E+00  0.00000000E+00  0.00000000E+00  2.04400000E+00  0.00000000E+00
Nuclear GFac                               R   N=           5
  2.79284600E+00  0.00000000E+00  0.00000000E+00  4.03761000E-01  0.00000000E+00
MicOpt                                     I   N=           5
          -1          -1          -1          -1          -1
Number of residues                         I                0
Number of secondary structures             I                0
SymInf integers                            I   N=          26
           1           1           1           1           1           0
           0           0           0           0           0           0
           0           0           0           0           0           0
           0           0           0           0           0           0
           0           0
RotTr to input orientation                 R   N=          12
 -6.62394855E-01  1.23306345E-01  7.38937481E-01  7.48244976E-01  6.02939248E-02
  6.60677000E-01  3.69122250E-02  9.90535304E-01 -1.32201739E-01  2.28359503E+00
 -2.17355312E-01  6.80507621E-01
Number of contracted shells                I               65
Number of primitive shells                 I              119
Pure/Cartesian d shells                    I                0
Pure/Cartesian f shells                    I                0
Highest angular momentum                   I                3
Largest degree of contraction              I                7
Shell types                                I   N=          65
           0           0           0           0           1           1
           1          -2          -2           0           0           0
           0           0           1           1           1           1
          -2          -2          -2          -3          -3           0
           0           0           0           0           1           1
           1           1          -2          -2          -2          -3
          -3           0           0           0           0           0
           1           1           1           1          -2          -2
          -2          -3          -3           0           0           0
           0           0           1           1           1           1
          -2          -2          -2          -3          -3
Number of primitives per shell             I   N=          65
           3           1           1           1           1           1
           1           1           1           7           6           1
           1           1           3           1           1           1
           1           1           1           1           1           7
           6           1           1           1           3           1
           1           1           1           1           1           1
           1           7           6           1           1           1
           3           1           1           1           1           1
           1           1           1           7           6           1
           1           1           3           1           1           1
           1           1           1           1           1
Shell to atom map                          I   N=          65
           1           1           1           1           1           1
           1           1           1           2           2           2
           2           2           2           2           2           2
           2           2           2           2           2           3
           3           3           3           3           3           3
           3           3           3           3           3           3
           3           4           4           4           4           4
           4           4           4           4           4           4
           4           4           4           5           5           5
           5           5           5           5           5           5
           5           5           5           5           5
Primitive exponents                        R   N=         119
  3.38700000E+01  5.09500000E+00  1.15900000E+00  3.25800000E-01  1.02700000E-01
  2.52600000E-02  1.40700000E+00  3.88000000E-01  1.02000000E-01  1.05700000E+00
  2.47000000E-01  1.53300000E+04  2.29900000E+03  5.22400000E+02  1.47300000E+02
  4.75500000E+01  1.67600000E+01  6.20700000E+00  5.22400000E+02  1.47300000E+02
  4.75500000E+01  1.67600000E+01  6.20700000E+00  6.88200000E-01  1.75200000E+00
  2.38400000E-01  7.37600000E-02  3.44600000E+01  7.74900000E+00  2.28000000E+00
  7.15600000E-01  2.14000000E-01  5.97400000E-02  2.31400000E+00  6.45000000E-01
  2.14000000E-01  1.42800000E+00  5.00000000E-01  1.53300000E+04  2.29900000E+03
  5.22400000E+02  1.47300000E+02  4.75500000E+01  1.67600000E+01  6.20700000E+00
  5.22400000E+02  1.47300000E+02  4.75500000E+01  1.67600000E+01  6.20700000E+00
  6.88200000E-01  1.75200000E+00  2.38400000E-01  7.37600000E-02  3.44600000E+01
  7.74900000E+00  2.28000000E+00  7.15600000E-01  2.14000000E-01  5.97400000E-02
  2.31400000E+00  6.45000000E-01  2.14000000E-01  1.42800000E+00  5.00000000E-01
  1.14200000E+04  1.71200000E+03  3.89300000E+02  1.10000000E+02  3.55700000E+01
  1.25400000E+01  4.64400000E+00  3.89300000E+02  1.10000000E+02  3.55700000E+01
  1.25400000E+01  4.64400000E+00  5.11800000E-01  1.29300000E+00  1.78700000E-01
  5.76000000E-02  2.66300000E+01  5.94800000E+00  1.74200000E+00  5.55000000E-01
  1.72500000E-01  4.91000000E-02  1.65400000E+00  4.69000000E-01  1.51000000E-01
  1.09300000E+00  3.64000000E-01  1.53300000E+04  2.29900000E+03  5.22400000E+02
  1.47300000E+02  4.75500000E+01  1.67600000E+01  6.20700000E+00  5.22400000E+02
  1.47300000E+02  4.75500000E+01  1.67600000E+01  6.20700000E+00  6.88200000E-01
  1.75200000E+00  2.38400000E-01  7.37600000E-02  3.44600000E+01  7.74900000E+00
  2.28000000E+00  7.15600000E-01  2.14000000E-01  5.97400000E-02  2.31400000E+00
  6.45000000E-01  2.14000000E-01  1.42800000E+00  5.00000000E-01
Contraction coefficients                   R   N=         119
  2.54948632E-02  1.90362766E-01  8.52162022E-01  1.00000000E+00  1.00000000E+00
  1.00000000E+00  1.00000000E+00  1.00000000E+00  1.00000000E+00  1.00000000E+00
  1.00000000E+00  5.19808943E-04  4.02025621E-03  2.07128267E-02  8.10105536E-02
  2.35962985E-01  4.42653446E-01  3.57064423E-01 -4.42115008E-05 -1.22591041E-03
 -1.05517725E-02 -6.74452633E-02 -1.71198607E-01  1.07329856E+00  1.00000000E+00
  1.00000000E+00  1.00000000E+00  4.11634896E-02  2.57762836E-01  8.02419274E-01
  1.00000000E+00  1.00000000E+00  1.00000000E+00  1.00000000E+00  1.00000000E+00
  1.00000000E+00  1.00000000E+00  1.00000000E+00  5.19808943E-04  4.02025621E-03
  2.07128267E-02  8.10105536E-02  2.35962985E-01  4.42653446E-01  3.57064423E-01
 -4.42115008E-05 -1.22591041E-03 -1.05517725E-02 -6.74452633E-02 -1.71198607E-01
  1.07329856E+00  1.00000000E+00  1.00000000E+00  1.00000000E+00  4.11634896E-02
  2.57762836E-01  8.02419274E-01  1.00000000E+00  1.00000000E+00  1.00000000E+00
  1.00000000E+00  1.00000000E+00  1.00000000E+00  1.00000000E+00  1.00000000E+00
  5.34563860E-04  4.13435660E-03  2.12335358E-02  8.25006224E-02  2.38138871E-01
  4.42551547E-01  3.53757422E-01 -4.89867350E-05 -1.19527323E-03 -1.03490714E-02
 -6.48680190E-02 -1.71552477E-01  1.07289568E+00  1.00000000E+00  1.00000000E+00
  1.00000000E+00  3.98072123E-02  2.49002660E-01  8.10479727E-01  1.00000000E+00
  1.00000000E+00  1.00000000E+00  1.00000000E+00  1.00000000E+00  1.00000000E+00
  1.00000000E+00  1.00000000E+00  5.19808943E-04  4.02025621E-03  2.07128267E-02
  8.10105536E-02  2.35962985E-01  4.42653446E-01  3.57064423E-01 -4.42115008E-05
 -1.22591041E-03 -1.05517725E-02 -6.74452633E-02 -1.71198607E-01  1.07329856E+00
  1.00000000E+00  1.00000000E+00  1.00000000E+00  4.11634896E-02  2.57762836E-01
  8.02419274E-01  1.00000000E+00  1.00000000E+00  1.00000000E+00  1.00000000E+00
  1.00000000E+00  1.00000000E+00  1.00000000E+00  1.00000000E+00
Coordinates of each shell                  R   N=         195
  1.03659030E+00 -2.14517903E+00  2.20969827E-01  1.03659030E+00 -2.14517903E+00
  2.20969827E-01  1.03659030E+00 -2.14517903E+00  2.20969827E-01  1.03659030E+00
 -2.14517903E+00  2.20969827E-01  1.03659030E+00 -2.14517903E+00  2.20969827E-01
  1.03659030E+00 -2.14517903E+00  2.20969827E-01  1.03659030E+00 -2.14517903E+00
  2.20969827E-01  1.03659030E+00 -2.14517903E+00  2.20969827E-01  1.03659030E+00
 -2.14517903E+00  2.20969827E-01  2.41255985E+00 -9.14937690E-01 -2.52019701E-02
  2.41255985E+00 -9.14937690E-01 -2.52019701E-02  2.41255985E+00 -9.14937690E-01
 -2.52019701E-02  2.41255985E+00 -9.14937690E-01 -2.52019701E-02  2.41255985E+00
 -9.14937690E-01 -2.52019701E-02  2.41255985E+00 -9.14937690E-01 -2.52019701E-02
  2.41255985E+00 -9.14937690E-01 -2.52019701E-02  2.41255985E+00 -9.14937690E-01
 -2.52019701E-02  2.41255985E+00 -9.14937690E-01 -2.52019701E-02  2.41255985E+00
 -9.14937690E-01 -2.52019701E-02  2.41255985E+00 -9.14937690E-01 -2.52019701E-02
  2.41255985E+00 -9.14937690E-01 -2.52019701E-02  2.41255985E+00 -9.14937690E-01
 -2.52019701E-02  2.41255985E+00 -9.14937690E-01 -2.52019701E-02  1.02502549E+00
  1.39653410E+00  6.82524211E-03  1.02502549E+00  1.39653410E+00  6.82524211E-03
  1.02502549E+00  1.39653410E+00  6.82524211E-03  1.02502549E+00  1.39653410E+00
  6.82524211E-03  1.02502549E+00  1.39653410E+00  6.82524211E-03  1.02502549E+00
  1.39653410E+00  6.82524211E-03  1.02502549E+00  1.39653410E+00  6.82524211E-03
  1.02502549E+00  1.39653410E+00  6.82524211E-03  1.02502549E+00  1.39653410E+00
  6.82524211E-03  1.02502549E+00  1.39653410E+00  6.82524211E-03  1.02502549E+00
  1.39653410E+00  6.82524211E-03  1.02502549E+00  1.39653410E+00  6.82524211E-03
  1.02502549E+00  1.39653410E+00  6.82524211E-03  1.02502549E+00  1.39653410E+00
  6.82524211E-03 -1.56051483E+00  1.04067534E+00  8.59044092E-03 -1.56051483E+00
  1.04067534E+00  8.59044092E-03 -1.56051483E+00  1.04067534E+00  8.59044092E-03
 -1.56051483E+00  1.04067534E+00  8.59044092E-03 -1.56051483E+00  1.04067534E+00
  8.59044092E-03 -1.56051483E+00  1.04067534E+00  8.59044092E-03 -1.56051483E+00
  1.04067534E+00  8.59044092E-03 -1.56051483E+00  1.04067534E+00  8.59044092E-03
 -1.56051483E+00  1.04067534E+00  8.59044092E-03 -1.56051483E+00  1.04067534E+00
  8.59044092E-03 -1.56051483E+00  1.04067534E+00  8.59044092E-03 -1.56051483E+00
  1.04067534E+00  8.59044092E-03 -1.56051483E+00  1.04067534E+00  8.59044092E-03
 -1.56051483E+00  1.04067534E+00  8.59044092E-03 -2.20170866E+00 -1.12403995E+00
 -1.67611361E-02 -2.20170866E+00 -1.12403995E+00 -1.67611361E-02 -2.20170866E+00
 -1.12403995E+00 -1.67611361E-02 -2.20170866E+00 -1.12403995E+00 -1.67611361E-02
 -2.20170866E+00 -1.12403995E+00 -1.67611361E-02 -2.20170866E+00 -1.12403995E+00
 -1.67611361E-02 -2.20170866E+00 -1.12403995E+00 -1.67611361E-02 -2.20170866E+00
 -1.12403995E+00 -1.67611361E-02 -2.20170866E+00 -1.12403995E+00 -1.67611361E-02
 -2.20170866E+00 -1.12403995E+00 -1.67611361E-02 -2.20170866E+00 -1.12403995E+00
 -1.67611361E-02 -2.20170866E+00 -1.12403995E+00 -1.67611361E-02 -2.20170866E+00
 -1.12403995E+00 -1.67611361E-02 -2.20170866E+00 -1.12403995E+00 -1.67611361E-02
Num ILSW                                   I              100
ILSW                                       I   N=         100
           0           0           0           0           2           0
           0           0           0           0           0          -1
           5           0           0           0           2           0
           0           0           0           0           1           0
           1           0           0           0           0           0
           0           0      100000           0          -1           0
           0           0           0           0           0           0
           0           0           0           1           1           0
           0 -2000000000           1           0           0           0
           0           0           4          52           0           0
           0           0           0           0           0           0
           0           0           0           5           4           1
           0           0           0           0           0           0
           0           0           0           0           0           0
           0           0           0           0           0           0
           0           0           0           0           0           0
           0           0           0           0
Num RLSW                                   I               52
RLSW                                       R   N=          52
  1.00000000E+00  1.00000000E+00  1.00000000E+00  1.00000000E+00  1.00000000E+00
  0.00000000E+00  0.00000000E+00  1.00000000E+00  0.00000000E+00  0.00000000E+00
  0.00000000E+00  0.00000000E+00  1.00000000E+00  0.00000000E+00  0.00000000E+00
  0.00000000E+00  0.00000000E+00  1.00000000E+00  0.00000000E+00  0.00000000E+00
  0.00000000E+00  0.00000000E+00  1.00000000E+00  0.00000000E+00  0.00000000E+00
  0.00000000E+00  0.00000000E+00  1.00000000E+00  0.00000000E+00  0.00000000E+00
  0.00000000E+00  0.00000000E+00  1.00000000E+00  0.00000000E+00  0.00000000E+00
  0.00000000E+00  0.00000000E+00  0.00000000E+00  1.00000000E+00  1.00000000E+00
  0.00000000E+00  1.00000000E+00  0.00000000E+00  0.00000000E+00  0.00000000E+00
  0.00000000E+00  0.00000000E+00  0.00000000E+00  0.00000000E+00  0.00000000E+00
  0.00000000E+00  0.00000000E+00
MxBond                                     I                2
NBond                                      I   N=           5
           1           2           2           2           1
IBond                                      I   N=          10
           2           0           1           3           2           4
           3           5           4           0
RBond                                      R   N=          10
  1.00000000E+00  0.00000000E+00  1.00000000E+00  1.00000000E+00  1.00000000E+00
  1.00000000E+00  1.00000000E+00  2.00000000E+00  2.00000000E+00  0.00000000E+00
Virial Ratio                               R      2.002229681111025E+00
SCF Energy                                 R     -2.795063259585413E+02
MP2 Energy                                 R     -2.804550405864775E+02
Total Energy                               R     -2.804550405864775E+02
Post-SCF wavefunction norm                 R      1.583711365597072E+00
RMS Force                                  R      8.982795168732609E-04
RMS Density                                R      6.915395495841338E-09
NImag                                      I                0
Job Status                                 I                1
Nuclear derivative order                   I                2
External E-field                           R   N=          35
  0.00000000E+00  0.00000000E+00  0.00000000E+00  0.00000000E+00  0.00000000E+00
  0.00000000E+00  0.00000000E+00  0.00000000E+00  0.00000000E+00  0.00000000E+00
  0.00000000E+00  0.00000000E+00  0.00000000E+00  0.00000000E+00  0.00000000E+00
  0.00000000E+00  0.00000000E+00  0.00000000E+00  0.00000000E+00  0.00000000E+00
  0.00000000E+00  0.00000000E+00  0.00000000E+00  0.00000000E+00  0.00000000E+00
  0.00000000E+00  0.00000000E+00  0.00000000E+00  0.00000000E+00  0.00000000E+00
  0.00000000E+00  0.00000000E+00  0.00000000E+00  0.00000000E+00  0.00000000E+00
IOpCl                                      I                0
IROHF                                      I                0
Alpha Orbital Energies                     R   N=         207
 -2.07196396E+01 -2.06867905E+01 -2.06685946E+01 -1.58256106E+01 -1.64385048E+00
 -1.50506243E+00 -1.29367880E+00 -9.60117222E-01 -8.33757657E-01 -7.58647686E-01
 -7.40143493E-01 -6.38599559E-01 -6.19289586E-01 -6.16090150E-01 -5.04411241E-01
 -4.97647910E-01  3.49328421E-02  6.05550564E-02  9.51179606E-02  1.00421614E-01
  1.18858457E-01  1.22661084E-01  1.50065893E-01  1.51824815E-01  1.76515583E-01
  1.81352347E-01  1.88928696E-01  2.12109252E-01  2.16974059E-01  2.42210255E-01
  2.46202291E-01  2.68879647E-01  3.01471769E-01  3.27360760E-01  3.38452899E-01
  3.44001954E-01  3.47339454E-01  3.92712474E-01  4.42449206E-01  4.85575872E-01
  5.09968459E-01  5.18611489E-01  5.44457609E-01  5.61805501E-01  5.98550550E-01
  6.20524725E-01  6.37340275E-01  6.89920707E-01  7.11467250E-01  7.29005366E-01
  7.43332411E-01  7.60038930E-01  7.71683072E-01  7.90597173E-01  8.06089669E-01
  8.40227981E-01  8.45076492E-01  8.54403948E-01  8.89786977E-01  9.06754501E-01
  9.28377003E-01  9.54026556E-01  9.54177683E-01  1.01698255E+00  1.03548899E+00
  1.05577451E+00  1.06398961E+00  1.09682791E+00  1.13928498E+00  1.15545906E+00
  1.17198861E+00  1.21372843E+00  1.23442982E+00  1.24703264E+00  1.34618226E+00
  1.36046560E+00  1.36911168E+00  1.45958736E+00  1.49917513E+00  1.50782336E+00
  1.53498094E+00  1.57643213E+00  1.60235031E+00  1.61906339E+00  1.63087207E+00
  1.69426117E+00  1.73729294E+00  1.80289326E+00  1.82885927E+00  1.89022320E+00
  1.89399329E+00  1.92925672E+00  1.97511864E+00  1.99610862E+00  2.05007148E+00
  2.12232520E+00  2.12775506E+00  2.17062095E+00  2.19081178E+00  2.24057212E+00
  2.26317273E+00  2.29925994E+00  2.34975340E+00  2.36434463E+00  2.38920629E+00
  2.40003418E+00  2.43087144E+00  2.46457572E+00  2.48287138E+00  2.52597254E+00
  2.53285733E+00  2.54917548E+00  2.56666047E+00  2.61570924E+00  2.63061135E+00
  2.65958249E+00  2.67362951E+00  2.75335824E+00  2.80805910E+00  2.82034612E+00
  2.84838980E+00  2.91801700E+00  2.98207363E+00  3.04211013E+00  3.05201971E+00
  3.11057441E+00  3.12412186E+00  3.16636216E+00  3.20983690E+00  3.30199313E+00
  3.33659873E+00  3.36013344E+00  3.47471837E+00  3.67825321E+00  3.85988600E+00
  3.93050464E+00  4.16033765E+00  4.22068809E+00  4.24343866E+00  4.28132258E+00
  4.37589168E+00  4.49943994E+00  4.51734271E+00  4.55438396E+00  4.60754949E+00
  4.69398768E+00  4.80960204E+00  4.89447101E+00  4.92086005E+00  4.94563935E+00
  4.99466664E+00  5.00813424E+00  5.10483765E+00  5.13108716E+00  5.18475298E+00
  5.24940390E+00  5.26065209E+00  5.31466487E+00  5.34073227E+00  5.35758980E+00
  5.54801923E+00  5.64456728E+00  5.70415686E+00  5.88897121E+00  5.99603170E+00
  6.26923435E+00  6.29681035E+00  6.35698274E+00  6.37594516E+00  6.60147716E+00
  6.65203046E+00  6.67039387E+00  6.69271665E+00  6.72535305E+00  6.77735716E+00
  6.81270531E+00  6.85873509E+00  6.96508609E+00  7.01495539E+00  7.06970392E+00
  7.08710325E+00  7.14019310E+00  7.16745985E+00  7.18053919E+00  7.20203570E+00
  7.24492149E+00  7.24954045E+00  7.27581892E+00  7.34913203E+00  7.39404721E+00
  7.42491024E+00  7.44419926E+00  7.46027884E+00  7.56070519E+00  7.65904840E+00
  7.66418738E+00  7.79834297E+00  7.88429964E+00  7.95087218E+00  8.04676386E+00
  8.30523141E+00  8.49454863E+00  8.64969541E+00  1.36185745E+01  1.47646667E+01
  1.50812599E+01  1.57493792E+01
Alpha MO coefficients                      R   N=       42849
  6.52375039E-05 -9.10749078E-05 -1.01401868E-03  1.15434150E-05 -1.62916533E-05
  6.37470476E-05  6.24578964E-06 -2.40777951E-04 -2.05940196E-04 -1.58214197E-05
 -2.04982078E-04 -2.61961378E-04 -2.91184734E-05  4.44775618E-05  9.23793373E-06
 -6.37118429E-06  6.57349822E-06  2.73811706E-05  2.16089995E-04  4.95105097E-05
 -2.31111012E-05 -1.85732131E-04 -2.45094119E-05  3.09898266E-03 -9.96936833E-05
 -9.82009217E-05  3.54610380E-03  2.43135998E-03  5.11768138E-05 -1.03812085E-04
 -3.62980272E-06 -4.18784226E-04  6.61969512E-04  2.81777584E-05 -9.86405493E-04
  2.06062995E-03  1.13681393E-04 -4.00836114E-04  3.48674962E-04  3.93713422E-05
  2.00131313E-05  2.42162550E-06  1.01575543E-06  3.89050857E-05  2.17046451E-05
 -4.41263544E-04 -2.20436134E-05  5.25612482E-06 -4.99983684E-04 -6.05218405E-04
 -3.67934439E-04 -2.18247293E-05  1.24089100E-05 -5.14052185E-04 -7.33602848E-04
  5.38500689E-07  2.89276420E-05 -8.56734653E-05 -2.79655528E-06 -2.56810819E-06
  1.11795020E-04 -8.90126643E-06 -1.99049600E-05  1.37426116E-04 -1.64548212E-04
 -3.28036658E-06 -1.43185171E-05  3.35353198E-04  6.12587547E-05  9.76903563E-01
 -9.17330506E-03  4.34076589E-02  4.81885520E-04 -2.19933998E-03 -9.07373390E-04
 -1.99764193E-03 -1.69353457E-05  1.07547474E-03  2.00608987E-03  1.27308977E-05
 -2.13117811E-03  9.92251158E-04  3.74271457E-05 -1.18242992E-04  2.04571554E-04
  1.75691965E-06  7.12445327E-06  3.58814793E-07 -7.11804205E-07  3.47008704E-05
  1.63283150E-05  8.27960032E-04  4.86050922E-06 -1.02859081E-05 -3.05789152E-04
  4.00981953E-04 -1.40089138E-04 -9.91139922E-06 -7.30783222E-06  1.81086731E-04
  6.19639269E-04  1.05337920E-07 -5.21205301E-05 -6.00393072E-05 -4.99206055E-07
 -6.96688023E-07  4.86124428E-05 -7.11693458E-06 -6.51997398E-06  7.49123581E-05
 -5.45462106E-05 -1.64613258E-06 -3.40072131E-06  4.67045375E-04  1.95336909E-04
  1.04522147E-04  4.58495769E-04 -3.23395171E-04 -8.15009342E-04  3.88359783E-04
 -9.46799433E-05 -5.46118829E-05  1.13817003E-06  1.21857680E-03  4.81766195E-04
 -2.52736706E-06 -1.01292880E-03 -8.44088827E-05 -9.49195677E-06  2.86846349E-04
  5.29099516E-05  3.99607697E-07 -5.23893257E-05  5.17089094E-07 -5.12174630E-07
  9.43924922E-05  8.99996243E-06 -4.16243516E-04 -8.52283837E-06 -2.81030859E-06
  1.04568381E-03  2.89371080E-04  2.32113959E-05 -7.15622782E-06 -4.69299440E-06
 -6.25546378E-05  3.14143141E-04  6.09470740E-07 -1.30677785E-04 -4.54257956E-05
 -1.28172759E-06  1.74446298E-06  1.31866778E-04  5.67573151E-05  3.43983890E-06
 -7.25443596E-05  1.12108747E-04 -4.94264206E-06 -4.81093174E-06  4.91602962E-04
 -1.83140674E-04 -6.98483506E-04  4.96013574E-05 -6.98750000E-05  1.71363239E-04
 -2.19790342E-04 -4.73164322E-05 -1.61136795E-05  1.37933206E-06  2.84497770E-04
  1.02919453E-04 -7.75984279E-06  6.05813384E-04 -4.60553755E-05  4.77406641E-05
 -2.18225164E-04  7.06691798E-05  5.11645459E-06 -1.32969603E-05 -1.20409283E-06
  4.20175951E-07  1.57323039E-05  8.18875232E-07 -7.90219450E-07  4.55669959E-06
 -7.81112861E-07 -4.00284597E-05  1.62875592E-04 -1.40410206E-05  4.50972494E-05
 -1.47887026E-05 -8.80572178E-05  1.62124104E-04  3.68057904E-06 -1.10836170E-05
 -3.26797248E-06 -3.40658624E-06  2.54702516E-06  1.51080741E-05  1.68734041E-05
 -1.28577805E-05  7.16374466E-05  2.33915501E-05  1.21058639E-05 -7.16494853E-06
 -1.47699021E-04 -1.11673603E-04  4.08357150E-05  8.35976289E-05 -1.85888828E-04
 -3.24463430E-05  1.90681655E-05 -1.37426305E-06 -1.16134635E-06  2.23840074E-04
 -7.42050849E-05 -6.87021586E-06  1.00118768E-04 -5.95487819E-05  1.50679809E-05
  1.41535822E-05 -6.66740575E-06  3.43905247E-06  7.03253002E-06  1.89829001E-05
  3.21300056E-05  2.53281536E-06  2.17029437E-06  1.02142579E-05  1.12833208E-04
 -2.66561006E-04  2.63595784E-05 -1.57792566E-05 -5.55158454E-04  1.97770451E-04
  1.37228075E-05  6.99643981E-06  1.36224582E-06 -2.31271043E-05 -3.45012373E-05
 -1.02326190E-05  2.59468802E-04 -2.12979844E-05 -2.00788699E-05 -1.62259864E-05
  5.79306263E-05 -4.16134834E-06 -1.21746584E-06  9.06762033E-07 -1.20013432E-06
 -1.26312644E-05  4.58617710E-06  2.03556796E-05  5.21621646E-08  7.83983395E-06
  1.11790130E-04 -1.62726670E-05  6.03936057E-05 -1.26904737E-06  1.01959972E-05
 -1.04991830E-04  1.39930209E-06  2.26887638E-06  1.25540610E-05  3.41368151E-06
 -1.96261486E-06 -4.43693515E-07 -2.29542610E-05  8.81358831E-06 -5.63204316E-06
 -3.34572248E-05 -1.81358782E-05  1.09304580E-05 -5.61145212E-06 -1.14797598E-05
  1.31281272E-05  7.27058911E-04  2.24743209E-05 -1.84317269E-05  2.79775211E-04
 -4.06066171E-04  2.94276883E-05  1.16481036E-05  7.49594697E-07 -1.44378408E-04
 -8.10703038E-05 -3.58409120E-06  1.94000247E-05 -2.61189956E-04  1.50992727E-05
 -3.58903018E-05  2.08803911E-04  8.22383766E-06 -4.02322764E-06  9.47223783E-07
 -2.74186191E-07 -1.81058047E-05  2.50374481E-05 -5.05121330E-05 -4.56251795E-06
  2.71390061E-06  1.40075021E-04 -3.81519242E-05 -6.30362344E-05 -1.12965917E-05
 -4.13900159E-06  2.68452292E-05 -3.43963755E-05  1.18663251E-06  4.75119012E-06
  8.02394881E-07  3.89182743E-07 -1.68261009E-07  4.81618355E-07  8.18647397E-06
 -4.14986014E-06 -1.35386236E-05 -2.21087742E-05  3.56374509E-06  4.83448174E-06
 -1.75172293E-04 -4.07908481E-05  2.37541450E-04  1.36010733E-03 -1.47991688E-04
 -6.16753686E-04  9.18182780E-04  9.05620587E-06 -9.45814264E-05 -2.77895515E-07
 -7.71213855E-04 -2.01937863E-03 -2.56481746E-05  4.03551254E-04  3.10439715E-04
 -2.00173665E-05 -3.01550870E-05 -3.57972632E-04 -4.03991594E-06 -1.27574275E-04
  2.28546847E-06  4.74679657E-06 -2.12469925E-04  1.46919617E-04 -4.63731547E-04
 -4.18250948E-06  2.05771978E-05 -1.05746605E-03  3.04036059E-04 -4.49988744E-05
 -8.72133491E-06  1.77938422E-06  1.26813711E-04 -2.75006567E-05  8.70097947E-07
  2.86871384E-05  2.49209674E-05  6.72877213E-07  1.10240697E-06  4.48229238E-06
  2.47834462E-05  7.48945018E-06 -1.57007387E-05  2.07662159E-04  3.67165217E-06
 -2.26088941E-06  7.02620158E-05  3.08693247E-04  9.76646243E-01 -9.88696104E-03
  4.35755571E-02  3.66256872E-03 -9.03332287E-04  8.96748180E-04  1.98554278E-03
  3.41588659E-05 -1.06901844E-03 -2.32526457E-03 -3.75580968E-05  4.26348196E-04
  6.71920836E-04  3.79428994E-05  4.46496315E-05 -1.14876600E-04 -1.02300270E-06
 -1.94479940E-04 -1.62950263E-06  5.90869695E-06 -6.37026467E-05  5.75441191E-05
  4.09804766E-04 -6.90594323E-06 -2.03440980E-05  7.20010266E-04 -6.74174728E-04
 -2.06314512E-04  2.06064324E-05  9.00220694E-06 -7.09524465E-05  1.12489848E-04
  3.87972913E-06  3.78450392E-05  5.93757179E-05 -8.88578209E-07 -7.24286294E-07
  1.95640294E-05  2.48259657E-05 -5.03263153E-06 -1.71022750E-05  1.27392855E-04
  1.45750351E-05 -6.52827406E-06  2.46731196E-04  9.00229094E-05  3.77368039E-04
  1.96894166E-03  1.30769776E-03 -1.35850997E-05  2.00259007E-04  1.86407959E-04
 -3.02256290E-05  8.94361505E-04  5.85616629E-04 -1.63626264E-04  5.48333605E-05
  2.41957985E-04 -5.94132731E-05 -2.26224315E-05  4.30046668E-06 -1.23908920E-06
 -1.69229799E-05 -3.95426901E-05 -2.03912183E-04 -5.92441560E-05 -6.41564433E-05
  2.79625546E-04  4.38718772E-04  9.76835543E-01 -9.18359446E-03  4.34640906E-02
  1.57365584E-04 -1.87958010E-03 -2.12987809E-03  5.40877202E-04  2.28738508E-04
  2.12370952E-03 -6.17915069E-04 -2.09334620E-04  2.44032540E-05  7.34986519E-04
 -8.82261433E-05 -2.62590323E-06 -3.61435749E-04  1.46851783E-06  3.15675841E-05
 -1.47318702E-06 -3.61194238E-06  3.78479928E-05  8.98861078E-05  7.49413914E-04
  9.87673934E-05  7.37336341E-05  2.76811845E-04  3.10923444E-04 -2.41166655E-04
 -2.18237870E-06  3.95660585E-05  1.18189227E-04 -3.13246051E-04  7.31986745E-06
 -6.29209884E-05  4.89537461E-05 -4.95367033E-06 -4.18663335E-07 -4.61339547E-05