title                                                                   
Freq      RMP2-FC                                                     Aug-CC-pVTZ         
Number of atoms                            I                5
Info1-9                                    I   N=           9
          33          24           0           0           0         100
           6           2           1
Full Title                                 C   N=           1
title       
Route                                      C   N=           4
#p freq mp2/aug-cc-pvtz density=current         
Charge                                     I                0
Multiplicity                               I                1
Number of electrons                        I               32
Number of alpha electrons                  I               16
Number of beta electrons                   I               16
Number of basis functions                  I              207
Number of independent functions            I              207
Number of point charges in /Mol/           I                0
Number of translation vectors              I                0
Atomic numbers                             I   N=           5
           1           8           8           7           8
Nuclear charges                            R   N=           5
  1.00000000E+00  8.00000000E+00  8.00000000E+00  7.00000000E+00  8.00000000E+00
Current cartesian coordinates              R   N=          15
 -4.24905758E+00  8.20184914E-01 -4.46570637E-02 -3.01996420E+00 -5.37073036E-01
 -3.45685353E-02 -7.56928729E-01  1.02256338E+00  3.89142126E-02  1.25467416E+00
 -8.62222528E-01  5.99790649E-02  3.21018524E+00  1.66431255E-01 -5.12452261E-02
Number of symbols in /Mol/                 I                0
Force Field                                I                0
Atom Types                                 C   N=           5
                                                            
Int Atom Types                             I   N=           5
           0           0           0           0           0
MM charges                                 R   N=           5
  0.00000000E+00  0.00000000E+00  0.00000000E+00  0.00000000E+00  0.00000000E+00
Integer atomic weights                     I   N=           5
           1          16          16          14          16
Real atomic weights                        R   N=           5
  1.00782504E+00  1.59949146E+01  1.59949146E+01  1.40030740E+01  1.59949146E+01
Atom fragment info                         I   N=           5
           0           0           0           0           0
Atom residue num                           I   N=           5
           0           0           0           0           0
Nuclear spins                              I   N=           5
           1           0           0           2           0
Nuclear ZEff                               R   N=           5
 -1.00000000E+00 -5.60000000E+00 -5.60000000E+00 -4.55000000E+00 -5.60000000E+00
Nuclear ZNuc                               R   N=           5
  1.00000000E+00  8.00000000E+00  8.00000000E+00  7.00000000E+00  8.00000000E+00
Nuclear QMom                               R   N=           5
  0.00000000E+00  0.00000000E+00  0.00000000E+00  2.04400000E+00  0.00000000E+00
Nuclear GFac                               R   N=           5
  2.79284600E+00  0.00000000E+00  0.00000000E+00  4.03761000E-01  0.00000000E+00
MicOpt                                     I   N=           5
          -1          -1          -1          -1          -1
Number of residues                         I                0
Number of secondary structures             I                0
SymInf integers                            I   N=          26
           1           1           1           1           1           0
           0           0           0           0           0           0
           0           0           0           0           0           0
           0           0           0           0           0           0
           0           0
RotTr to input orientation                 R   N=          12
  7.40885332E-01 -2.31389973E-02  6.71232830E-01  6.71119198E-01 -1.35236518E-02
 -7.41226101E-01  2.62287479E-02  9.99640784E-01  5.50955004E-03  2.59879390E+00
 -4.25860147E-02  3.46029545E+00
Number of contracted shells                I               65
Number of primitive shells                 I              119
Pure/Cartesian d shells                    I                0
Pure/Cartesian f shells                    I                0
Highest angular momentum                   I                3
Largest degree of contraction              I                7
Shell types                                I   N=          65
           0           0           0           0           1           1
           1          -2          -2           0           0           0
           0           0           1           1           1           1
          -2          -2          -2          -3          -3           0
           0           0           0           0           1           1
           1           1          -2          -2          -2          -3
          -3           0           0           0           0           0
           1           1           1           1          -2          -2
          -2          -3          -3           0           0           0
           0           0           1           1           1           1
          -2          -2          -2          -3          -3
Number of primitives per shell             I   N=          65
           3           1           1           1           1           1
           1           1           1           7           6           1
           1           1           3           1           1           1
           1           1           1           1           1           7
           6           1           1           1           3           1
           1           1           1           1           1           1
           1           7           6           1           1           1
           3           1           1           1           1           1
           1           1           1           7           6           1
           1           1           3           1           1           1
           1           1           1           1           1
Shell to atom map                          I   N=          65
           1           1           1           1           1           1
           1           1           1           2           2           2
           2           2           2           2           2           2
           2           2           2           2           2           3
           3           3           3           3           3           3
           3           3           3           3           3           3
           3           4           4           4           4           4
           4           4           4           4           4           4
           4           4           4           5           5           5
           5           5           5           5           5           5
           5           5           5           5           5
Primitive exponents                        R   N=         119
  3.38700000E+01  5.09500000E+00  1.15900000E+00  3.25800000E-01  1.02700000E-01
  2.52600000E-02  1.40700000E+00  3.88000000E-01  1.02000000E-01  1.05700000E+00
  2.47000000E-01  1.53300000E+04  2.29900000E+03  5.22400000E+02  1.47300000E+02
  4.75500000E+01  1.67600000E+01  6.20700000E+00  5.22400000E+02  1.47300000E+02
  4.75500000E+01  1.67600000E+01  6.20700000E+00  6.88200000E-01  1.75200000E+00
  2.38400000E-01  7.37600000E-02  3.44600000E+01  7.74900000E+00  2.28000000E+00
  7.15600000E-01  2.14000000E-01  5.97400000E-02  2.31400000E+00  6.45000000E-01
  2.14000000E-01  1.42800000E+00  5.00000000E-01  1.53300000E+04  2.29900000E+03
  5.22400000E+02  1.47300000E+02  4.75500000E+01  1.67600000E+01  6.20700000E+00
  5.22400000E+02  1.47300000E+02  4.75500000E+01  1.67600000E+01  6.20700000E+00
  6.88200000E-01  1.75200000E+00  2.38400000E-01  7.37600000E-02  3.44600000E+01
  7.74900000E+00  2.28000000E+00  7.15600000E-01  2.14000000E-01  5.97400000E-02
  2.31400000E+00  6.45000000E-01  2.14000000E-01  1.42800000E+00  5.00000000E-01
  1.14200000E+04  1.71200000E+03  3.89300000E+02  1.10000000E+02  3.55700000E+01
  1.25400000E+01  4.64400000E+00  3.89300000E+02  1.10000000E+02  3.55700000E+01
  1.25400000E+01  4.64400000E+00  5.11800000E-01  1.29300000E+00  1.78700000E-01
  5.76000000E-02  2.66300000E+01  5.94800000E+00  1.74200000E+00  5.55000000E-01
  1.72500000E-01  4.91000000E-02  1.65400000E+00  4.69000000E-01  1.51000000E-01
  1.09300000E+00  3.64000000E-01  1.53300000E+04  2.29900000E+03  5.22400000E+02
  1.47300000E+02  4.75500000E+01  1.67600000E+01  6.20700000E+00  5.22400000E+02
  1.47300000E+02  4.75500000E+01  1.67600000E+01  6.20700000E+00  6.88200000E-01
  1.75200000E+00  2.38400000E-01  7.37600000E-02  3.44600000E+01  7.74900000E+00
  2.28000000E+00  7.15600000E-01  2.14000000E-01  5.97400000E-02  2.31400000E+00
  6.45000000E-01  2.14000000E-01  1.42800000E+00  5.00000000E-01
Contraction coefficients                   R   N=         119
  2.54948632E-02  1.90362766E-01  8.52162022E-01  1.00000000E+00  1.00000000E+00
  1.00000000E+00  1.00000000E+00  1.00000000E+00  1.00000000E+00  1.00000000E+00
  1.00000000E+00  5.19808943E-04  4.02025621E-03  2.07128267E-02  8.10105536E-02
  2.35962985E-01  4.42653446E-01  3.57064423E-01 -4.42115008E-05 -1.22591041E-03
 -1.05517725E-02 -6.74452633E-02 -1.71198607E-01  1.07329856E+00  1.00000000E+00
  1.00000000E+00  1.00000000E+00  4.11634896E-02  2.57762836E-01  8.02419274E-01
  1.00000000E+00  1.00000000E+00  1.00000000E+00  1.00000000E+00  1.00000000E+00
  1.00000000E+00  1.00000000E+00  1.00000000E+00  5.19808943E-04  4.02025621E-03
  2.07128267E-02  8.10105536E-02  2.35962985E-01  4.42653446E-01  3.57064423E-01
 -4.42115008E-05 -1.22591041E-03 -1.05517725E-02 -6.74452633E-02 -1.71198607E-01
  1.07329856E+00  1.00000000E+00  1.00000000E+00  1.00000000E+00  4.11634896E-02
  2.57762836E-01  8.02419274E-01  1.00000000E+00  1.00000000E+00  1.00000000E+00
  1.00000000E+00  1.00000000E+00  1.00000000E+00  1.00000000E+00  1.00000000E+00
  5.34563860E-04  4.13435660E-03  2.12335358E-02  8.25006224E-02  2.38138871E-01
  4.42551547E-01  3.53757422E-01 -4.89867350E-05 -1.19527323E-03 -1.03490714E-02
 -6.48680190E-02 -1.71552477E-01  1.07289568E+00  1.00000000E+00  1.00000000E+00
  1.00000000E+00  3.98072123E-02  2.49002660E-01  8.10479727E-01  1.00000000E+00
  1.00000000E+00  1.00000000E+00  1.00000000E+00  1.00000000E+00  1.00000000E+00
  1.00000000E+00  1.00000000E+00  5.19808943E-04  4.02025621E-03  2.07128267E-02
  8.10105536E-02  2.35962985E-01  4.42653446E-01  3.57064423E-01 -4.42115008E-05
 -1.22591041E-03 -1.05517725E-02 -6.74452633E-02 -1.71198607E-01  1.07329856E+00
  1.00000000E+00  1.00000000E+00  1.00000000E+00  4.11634896E-02  2.57762836E-01
  8.02419274E-01  1.00000000E+00  1.00000000E+00  1.00000000E+00  1.00000000E+00
  1.00000000E+00  1.00000000E+00  1.00000000E+00  1.00000000E+00
Coordinates of each shell                  R   N=         195
 -4.24905758E+00  8.20184914E-01 -4.46570637E-02 -4.24905758E+00  8.20184914E-01
 -4.46570637E-02 -4.24905758E+00  8.20184914E-01 -4.46570637E-02 -4.24905758E+00
  8.20184914E-01 -4.46570637E-02 -4.24905758E+00  8.20184914E-01 -4.46570637E-02
 -4.24905758E+00  8.20184914E-01 -4.46570637E-02 -4.24905758E+00  8.20184914E-01
 -4.46570637E-02 -4.24905758E+00  8.20184914E-01 -4.46570637E-02 -4.24905758E+00
  8.20184914E-01 -4.46570637E-02 -3.01996420E+00 -5.37073036E-01 -3.45685353E-02
 -3.01996420E+00 -5.37073036E-01 -3.45685353E-02 -3.01996420E+00 -5.37073036E-01
 -3.45685353E-02 -3.01996420E+00 -5.37073036E-01 -3.45685353E-02 -3.01996420E+00
 -5.37073036E-01 -3.45685353E-02 -3.01996420E+00 -5.37073036E-01 -3.45685353E-02
 -3.01996420E+00 -5.37073036E-01 -3.45685353E-02 -3.01996420E+00 -5.37073036E-01
 -3.45685353E-02 -3.01996420E+00 -5.37073036E-01 -3.45685353E-02 -3.01996420E+00
 -5.37073036E-01 -3.45685353E-02 -3.01996420E+00 -5.37073036E-01 -3.45685353E-02
 -3.01996420E+00 -5.37073036E-01 -3.45685353E-02 -3.01996420E+00 -5.37073036E-01
 -3.45685353E-02 -3.01996420E+00 -5.37073036E-01 -3.45685353E-02 -7.56928729E-01
  1.02256338E+00  3.89142126E-02 -7.56928729E-01  1.02256338E+00  3.89142126E-02
 -7.56928729E-01  1.02256338E+00  3.89142126E-02 -7.56928729E-01  1.02256338E+00
  3.89142126E-02 -7.56928729E-01  1.02256338E+00  3.89142126E-02 -7.56928729E-01
  1.02256338E+00  3.89142126E-02 -7.56928729E-01  1.02256338E+00  3.89142126E-02
 -7.56928729E-01  1.02256338E+00  3.89142126E-02 -7.56928729E-01  1.02256338E+00
  3.89142126E-02 -7.56928729E-01  1.02256338E+00  3.89142126E-02 -7.56928729E-01
  1.02256338E+00  3.89142126E-02 -7.56928729E-01  1.02256338E+00  3.89142126E-02
 -7.56928729E-01  1.02256338E+00  3.89142126E-02 -7.56928729E-01  1.02256338E+00
  3.89142126E-02  1.25467416E+00 -8.62222528E-01  5.99790649E-02  1.25467416E+00
 -8.62222528E-01  5.99790649E-02  1.25467416E+00 -8.62222528E-01  5.99790649E-02
  1.25467416E+00 -8.62222528E-01  5.99790649E-02  1.25467416E+00 -8.62222528E-01
  5.99790649E-02  1.25467416E+00 -8.62222528E-01  5.99790649E-02  1.25467416E+00
 -8.62222528E-01  5.99790649E-02  1.25467416E+00 -8.62222528E-01  5.99790649E-02
  1.25467416E+00 -8.62222528E-01  5.99790649E-02  1.25467416E+00 -8.62222528E-01
  5.99790649E-02  1.25467416E+00 -8.62222528E-01  5.99790649E-02  1.25467416E+00
 -8.62222528E-01  5.99790649E-02  1.25467416E+00 -8.62222528E-01  5.99790649E-02
  1.25467416E+00 -8.62222528E-01  5.99790649E-02  3.21018524E+00  1.66431255E-01
 -5.12452261E-02  3.21018524E+00  1.66431255E-01 -5.12452261E-02  3.21018524E+00
  1.66431255E-01 -5.12452261E-02  3.21018524E+00  1.66431255E-01 -5.12452261E-02
  3.21018524E+00  1.66431255E-01 -5.12452261E-02  3.21018524E+00  1.66431255E-01
 -5.12452261E-02  3.21018524E+00  1.66431255E-01 -5.12452261E-02  3.21018524E+00
  1.66431255E-01 -5.12452261E-02  3.21018524E+00  1.66431255E-01 -5.12452261E-02
  3.21018524E+00  1.66431255E-01 -5.12452261E-02  3.21018524E+00  1.66431255E-01
 -5.12452261E-02  3.21018524E+00  1.66431255E-01 -5.12452261E-02  3.21018524E+00
  1.66431255E-01 -5.12452261E-02  3.21018524E+00  1.66431255E-01 -5.12452261E-02
Num ILSW                                   I              100
ILSW                                       I   N=         100
           0           0           0           0           2           0
           0           0           0           0           0          -1
           5           0           0           0           2           0
           0           0           0           0           1           0
           1           0           0           0           0           0
           0           0      100000           0          -1           0
           0           0           0           0           0           0
           0           0           0           1           1           0
           0 -2000000000           1           0           0           0
           0           0           4          52           0           0
           0           0           0           0           0           0
           0           0           0           5           4           1
           0           0           0           0           0           0
           0           0           0           0           0           0
           0           0           0           0           0           0
           0           0           0           0           0           0
           0           0           0           0
Num RLSW                                   I               52
RLSW                                       R   N=          52
  1.00000000E+00  1.00000000E+00  1.00000000E+00  1.00000000E+00  1.00000000E+00
  0.00000000E+00  0.00000000E+00  1.00000000E+00  0.00000000E+00  0.00000000E+00
  0.00000000E+00  0.00000000E+00  1.00000000E+00  0.00000000E+00  0.00000000E+00
  0.00000000E+00  0.00000000E+00  1.00000000E+00  0.00000000E+00  0.00000000E+00
  0.00000000E+00  0.00000000E+00  1.00000000E+00  0.00000000E+00  0.00000000E+00
  0.00000000E+00  0.00000000E+00  1.00000000E+00  0.00000000E+00  0.00000000E+00
  0.00000000E+00  0.00000000E+00  1.00000000E+00  0.00000000E+00  0.00000000E+00
  0.00000000E+00  0.00000000E+00  0.00000000E+00  1.00000000E+00  1.00000000E+00
  0.00000000E+00  1.00000000E+00  0.00000000E+00  0.00000000E+00  0.00000000E+00
  0.00000000E+00  0.00000000E+00  0.00000000E+00  0.00000000E+00  0.00000000E+00
  0.00000000E+00  0.00000000E+00
MxBond                                     I                2
NBond                                      I   N=           5
           1           2           2           2           1
IBond                                      I   N=          10
           2           0           1           3           2           4
           3           5           4           0
RBond                                      R   N=          10
  1.00000000E+00  0.00000000E+00  1.00000000E+00  1.00000000E+00  1.00000000E+00
  1.00000000E+00  1.00000000E+00  2.00000000E+00  2.00000000E+00  0.00000000E+00
Virial Ratio                               R      2.002352076064417E+00
SCF Energy                                 R     -2.795015976751773E+02
MP2 Energy                                 R     -2.804465982903976E+02
Total Energy                               R     -2.804465982903976E+02
Post-SCF wavefunction norm                 R      1.584216840582552E+00
RMS Force                                  R      7.458744858360308E-04
RMS Density                                R      8.645462097177659E-09
NImag                                      I                1
Job Status                                 I                1
Nuclear derivative order                   I                2
External E-field                           R   N=          35
  0.00000000E+00  0.00000000E+00  0.00000000E+00  0.00000000E+00  0.00000000E+00
  0.00000000E+00  0.00000000E+00  0.00000000E+00  0.00000000E+00  0.00000000E+00
  0.00000000E+00  0.00000000E+00  0.00000000E+00  0.00000000E+00  0.00000000E+00
  0.00000000E+00  0.00000000E+00  0.00000000E+00  0.00000000E+00  0.00000000E+00
  0.00000000E+00  0.00000000E+00  0.00000000E+00  0.00000000E+00  0.00000000E+00
  0.00000000E+00  0.00000000E+00  0.00000000E+00  0.00000000E+00  0.00000000E+00
  0.00000000E+00  0.00000000E+00  0.00000000E+00  0.00000000E+00  0.00000000E+00
IOpCl                                      I                0
IROHF                                      I                0
Alpha Orbital Energies                     R   N=         207
 -2.06907727E+01 -2.06843689E+01 -2.06599918E+01 -1.58127853E+01 -1.62404423E+00
 -1.49571920E+00 -1.25439498E+00 -9.48063589E-01 -7.72763839E-01 -7.59161863E-01
 -7.12017188E-01 -6.79130421E-01 -6.20530654E-01 -5.89374151E-01 -4.85221868E-01
 -4.72488847E-01  2.96287056E-02  7.15755823E-02  8.59988170E-02  1.01716693E-01
  1.32518252E-01  1.35304873E-01  1.44093050E-01  1.54541620E-01  1.78111881E-01
  1.94127712E-01  1.99593470E-01  2.06565003E-01  2.20889043E-01  2.34629274E-01
  2.38333330E-01  2.65645365E-01  2.93427344E-01  3.03348757E-01  3.11314876E-01
  3.43410684E-01  3.49849886E-01  3.87204202E-01  4.21466935E-01  4.30956304E-01
  5.25799550E-01  5.30883657E-01  5.58373949E-01  5.81363345E-01  6.26003147E-01
  6.38416009E-01  6.72579955E-01  6.86535962E-01  7.06454896E-01  7.11310927E-01
  7.24827707E-01  7.29695933E-01  7.44733352E-01  7.90059852E-01  7.93876735E-01
  8.08184014E-01  8.14974881E-01  8.30268986E-01  8.68116998E-01  9.07972212E-01
  9.21925079E-01  9.26335614E-01  9.56257670E-01  9.76441880E-01  9.85226696E-01
  1.01621151E+00  1.05018052E+00  1.05520622E+00  1.08447743E+00  1.11711432E+00
  1.14021397E+00  1.19024472E+00  1.22144981E+00  1.23228518E+00  1.33845887E+00
  1.35097598E+00  1.38748561E+00  1.45221321E+00  1.48757688E+00  1.50867505E+00
  1.53807120E+00  1.56569532E+00  1.58117134E+00  1.61323626E+00  1.66343190E+00
  1.66919036E+00  1.70376933E+00  1.79192363E+00  1.82912568E+00  1.83703859E+00
  1.87946716E+00  1.91068292E+00  1.95603884E+00  1.99126093E+00  2.00723999E+00
  2.07756929E+00  2.12020534E+00  2.13103551E+00  2.15094005E+00  2.22520479E+00
  2.26402548E+00  2.26550200E+00  2.28986944E+00  2.31409702E+00  2.34476602E+00
  2.38637869E+00  2.41989836E+00  2.43214291E+00  2.45400246E+00  2.46272690E+00
  2.47729568E+00  2.50222782E+00  2.59016957E+00  2.59651354E+00  2.61924794E+00
  2.62454451E+00  2.63523705E+00  2.66693434E+00  2.75573827E+00  2.82205038E+00
  2.85432438E+00  2.88517298E+00  2.89905745E+00  2.92297288E+00  2.96072501E+00
  3.02634508E+00  3.06880134E+00  3.12180455E+00  3.20497865E+00  3.22599098E+00
  3.31564395E+00  3.34200833E+00  3.51568346E+00  3.64121895E+00  3.83726690E+00
  3.84624182E+00  4.14885554E+00  4.16225231E+00  4.18398181E+00  4.25695365E+00
  4.35176592E+00  4.39343765E+00  4.46400080E+00  4.51919898E+00  4.65955364E+00
  4.70999364E+00  4.80558112E+00  4.82436717E+00  4.82771889E+00  4.89792007E+00
  5.02287010E+00  5.07573346E+00  5.10425121E+00  5.14576655E+00  5.17908357E+00
  5.24331439E+00  5.27264705E+00  5.30646579E+00  5.32933703E+00  5.35517300E+00
  5.60610015E+00  5.67401302E+00  5.76902442E+00  5.82889294E+00  5.95782455E+00
  6.16888136E+00  6.30941417E+00  6.33762427E+00  6.39422938E+00  6.49350381E+00
  6.50539585E+00  6.61427465E+00  6.66754660E+00  6.69898301E+00  6.75704261E+00
  6.76378914E+00  6.83247047E+00  6.89816597E+00  7.01417339E+00  7.05460815E+00
  7.05823862E+00  7.09022105E+00  7.12483901E+00  7.15140079E+00  7.18156252E+00
  7.22525417E+00  7.24188017E+00  7.30768223E+00  7.32586221E+00  7.34795879E+00
  7.39933794E+00  7.43184030E+00  7.48385317E+00  7.59529036E+00  7.62542399E+00
  7.62917249E+00  7.66790124E+00  7.78965518E+00  7.88652098E+00  8.09229394E+00
  8.31362365E+00  8.40886143E+00  8.54370127E+00  1.33924506E+01  1.43913858E+01
  1.51626607E+01  1.61505627E+01
Alpha MO coefficients                      R   N=       42849
  9.19781412E-05 -6.44738980E-04 -7.29654380E-04 -4.68660390E-06  3.32422753E-05
 -8.85557090E-06  1.86191098E-07 -1.35362605E-06  7.53894312E-05 -2.01561158E-06
 -9.18447143E-05 -2.27282963E-05 -1.69934713E-06  3.18364053E-05 -2.54548264E-06
 -1.92984864E-06  5.75875804E-06 -5.36622157E-05 -5.46205879E-06  1.13399225E-06
 -3.29970911E-06  7.23015040E-05 -1.67112239E-04  4.60073541E-03 -2.81935945E-04
  1.52816228E-05  1.55907157E-03  1.82655238E-03 -8.97783481E-05 -5.71348207E-05
 -3.34531870E-06  5.17004474E-04  3.38285429E-04  1.86098179E-05  4.08269630E-04
  1.29625228E-03  2.51973291E-05  2.86157474E-04  2.91578883E-04  6.91157776E-06
  2.87484736E-05 -2.42396273E-06 -2.13033141E-06 -1.02327908E-05 -5.34046259E-05
 -3.77394908E-04  3.05269544E-05  2.51578344E-05  1.84938550E-04  7.16631246E-04
 -4.46527257E-04  1.63506001E-05  1.69349901E-05  5.45334697E-05  2.34816115E-04
 -4.83013183E-06 -7.17344590E-05 -3.72397927E-05  2.57591831E-06  6.71753714E-06
 -3.35445537E-05  1.04211186E-04 -1.93062487E-05 -1.87013533E-04 -1.73308680E-04
  2.69148230E-06  2.20085023E-05 -1.65584059E-04  3.16065171E-04  9.76910553E-01
 -9.21678978E-03  4.33188820E-02  2.04449571E-03 -9.19240097E-04 -3.93430513E-04
 -1.97837925E-03 -2.44495023E-05  3.29578993E-04  1.96692044E-03  2.95405984E-05
  6.26969825E-04 -9.84002380E-04  1.16735778E-05  1.15668570E-04  7.11769387E-05
  3.99034082E-06  4.63816698E-05 -2.53011803E-06 -2.26894640E-06  1.01288169E-05
 -3.98818278E-05  7.46298338E-04 -4.12484724E-05 -1.75923463E-05 -4.39523678E-04
 -1.08462710E-04 -3.58900237E-04  4.12595683E-06  1.13966268E-06 -4.50787947E-04
 -1.90519022E-04 -2.61124581E-06 -8.92088991E-06 -6.74234942E-05  2.40585711E-06
  4.56461483E-06  1.89221953E-06  4.19437557E-05 -1.71729566E-06 -3.14036011E-05
  3.70314385E-06 -1.74557387E-06  7.28748123E-06  2.87744571E-05  3.34145612E-04
  3.92577119E-05  4.70267452E-05 -2.64249900E-04 -7.07404612E-04 -1.47092733E-04
  7.96334301E-05 -6.22270107E-05 -1.55284854E-06 -6.38219286E-04  4.09458137E-04
  1.11962548E-05  9.57958350E-04  1.06022267E-04  1.75929898E-05  1.16721253E-04
  5.08067491E-05  1.06673941E-05 -1.80698049E-05  2.23552382E-06 -1.15986679E-06
  5.66893071E-06 -3.27099992E-05 -3.29318031E-04  6.77716198E-06  5.57960458E-06
 -1.18326797E-04 -8.30101615E-04 -3.62681453E-05 -1.56835185E-05  9.22725420E-06
 -8.08423782E-05  1.25717232E-04  4.47893040E-07  8.80109236E-05 -8.41296219E-05
  1.66245625E-06  4.39665191E-06  1.08974666E-04  1.05178612E-04  1.02004145E-05
  8.87793873E-05 -1.24879802E-04 -1.44723185E-05  1.03109580E-05  4.08371798E-04
  9.85478635E-05 -2.64756982E-03  1.20837469E-04 -1.26526075E-04 -2.40487321E-04
  1.39675748E-04  2.30579900E-05 -1.75222003E-05 -1.76821077E-06 -1.52668077E-04
  9.05535927E-05  1.30525499E-05 -3.11892002E-04  2.67497998E-05 -1.25152605E-05
 -1.16774004E-04 -5.53389745E-05 -7.72916737E-06 -3.43014180E-06  1.10895004E-06
  2.39252936E-07 -4.15470275E-06 -1.73405112E-05  1.16827836E-06 -1.03353337E-05
  2.10832754E-06  1.07953180E-04  5.05514651E-05 -1.00403436E-04  3.85079645E-06
 -7.23979725E-06  2.05202743E-04  1.09714395E-04  1.13195262E-06 -1.04903294E-05
 -1.19741875E-05  9.90270114E-07 -2.10060604E-06  9.79764527E-06  7.88244984E-06
 -1.96951197E-06 -3.07843162E-07  5.54466522E-05 -2.53340898E-06  7.09667380E-06
 -5.75372582E-05 -1.08168611E-04  3.84493557E-05 -9.73538275E-04 -4.80962088E-04
 -1.05343786E-05  8.52964656E-06  2.56846140E-05  3.19126706E-07 -1.60336011E-04
  2.17456536E-04 -2.67617141E-06 -4.62250860E-05  1.30949903E-04  1.28664011E-06
  2.56191422E-05 -3.09262662E-08  4.96545535E-07  1.40878005E-05  8.28025423E-06
 -2.69916519E-05  3.21371165E-07  1.01054948E-06  3.63238149E-05  3.54798562E-07
  1.12355101E-04  8.37562573E-05 -2.76523592E-05  7.35835977E-04  6.41140246E-04
 -9.59540413E-06 -3.92536744E-06  4.74436388E-08  4.91041645E-05  5.47071765E-05
 -1.27291959E-06 -7.98081723E-04  5.17821175E-04  2.04207909E-05 -5.04787059E-05
  6.16030031E-05  1.01920143E-05 -2.28561361E-06 -8.10037346E-07  5.63674604E-08
 -5.68064509E-06  1.57879950E-06 -3.50936594E-05  4.63982945E-06 -2.92307477E-07
  7.31226841E-05 -4.22062812E-05 -2.10214109E-05  1.55777765E-05  1.59011039E-06
 -2.30628383E-04 -2.04878313E-04  4.08113180E-07 -1.10668253E-05 -5.36654441E-07
 -3.97116325E-07  5.36785581E-07  1.82326837E-05  3.50040820E-06 -2.94026951E-06
  5.54669169E-05 -6.79318613E-06  6.84348399E-06  6.08204964E-07 -4.45396366E-05
  6.60439157E-05  2.68606780E-03  3.79994165E-05  9.45233087E-05 -7.39527922E-05
 -4.61470995E-04 -1.53234367E-05  8.09505811E-06 -5.69286422E-07  8.33436063E-05
 -6.74937125E-06  1.83955478E-06 -7.96621672E-05 -2.88015029E-04 -2.16804807E-05
  1.85899167E-04  5.85678048E-05 -6.25633893E-06 -8.68251408E-06 -1.74608104E-06
 -5.45437990E-08  2.54234932E-05  1.55197099E-05  4.60389650E-06  6.35854760E-06
  9.90996322E-08 -7.86008680E-05 -9.84179110E-05 -4.98237525E-06  9.84727110E-06
  1.70024205E-05 -2.59747368E-04 -1.50787585E-04 -1.39240669E-06 -2.25452575E-06
 -2.41442353E-06 -1.26357243E-06  4.18894865E-07  1.32426524E-05  2.95094560E-06
  3.42131441E-07  3.49283989E-05  3.04636444E-05  9.65668157E-06 -5.94966903E-06
 -2.01733374E-04  9.09402934E-06  2.58598498E-04  1.46459309E-03 -7.80327193E-05
 -1.53797368E-03  3.98245284E-04  1.15894876E-04  8.58598138E-05 -8.38879895E-06
  1.91705548E-03  9.16643674E-04 -9.93169834E-05 -1.29074564E-03 -4.40991083E-06
  3.01625568E-05  1.03880603E-04  1.46164223E-04 -5.90229877E-06 -1.22350360E-04
 -2.12618350E-05 -9.69190733E-06  1.60665016E-04  2.04450989E-04 -4.38133199E-04
 -7.93484922E-05 -4.94621940E-05  1.99355931E-04  8.75514691E-04  1.05103250E-05
  2.25204824E-05  3.58715754E-06 -2.14574428E-04 -2.88066076E-04 -2.72744163E-06
 -8.08527746E-06  1.29936308E-05  2.68847972E-06  8.46219980E-07 -6.15820832E-06
 -2.22231621E-05  3.21963769E-05 -8.72862101E-05 -1.53735439E-04 -1.57199651E-05
 -3.41058900E-05 -1.19122879E-04  2.12355650E-04  9.76648970E-01 -9.84945002E-03
  4.35677602E-02  4.50299921E-03 -4.45167474E-04 -2.00999368E-03 -8.89355883E-04
  1.13328407E-04  2.27253348E-03  9.31491446E-04 -1.16391000E-04 -9.13272293E-04
 -6.79305149E-04  7.62690096E-05  2.14011920E-05 -3.63387362E-05 -3.78286191E-06
 -2.31334877E-04 -1.73192253E-05 -1.88275787E-05  6.05648934E-05  8.82761992E-05
  3.87733516E-04  7.45993817E-05  1.82571374E-05 -6.42672953E-04 -6.73521415E-04
 -1.51506134E-04 -2.76654688E-05 -2.06770451E-05  9.08401236E-05  2.39430887E-04
  6.55519633E-06 -5.18194489E-05 -1.63560734E-05 -2.93437752E-06 -6.04944741E-06
  5.15652442E-06  2.50382787E-05  1.66257682E-05 -1.15280843E-04 -7.45729881E-05
 -1.88188724E-05 -1.52676325E-05  6.89624504E-05  2.24889127E-04  4.74847868E-04
  2.05905700E-03  1.16662037E-04  1.49471810E-05  1.79917165E-04 -1.73729000E-04
  2.22315624E-06  6.69357440E-04 -1.09048096E-03 -2.59829119E-06 -4.70101139E-05
 -4.56290322E-04 -1.06084026E-05 -2.56567349E-06  1.98055950E-06  1.03053876E-06
  3.68453013E-05  6.81972135E-05 -1.60281592E-04 -4.12395994E-06 -3.45187072E-06
 -1.78726766E-04 -5.06984618E-04  9.76830002E-01 -9.16326730E-03  4.34496995E-02
  1.67302594E-04 -1.13876144E-03  3.95727539E-04  2.08853549E-03  4.09191483E-05
 -4.99167783E-04 -1.96906559E-03 -4.01882121E-05  9.73658322E-04 -3.55531383E-04
  1.73177363E-05 -2.66474028E-05 -5.82068313E-05 -2.91954803E-06  2.93794531E-05
 -4.47798967E-06 -2.93240465E-06 -3.70960298E-05 -1.12040718E-04  7.56246321E-04
 -3.97025540E-05 -1.84915692E-05 -2.83595240E-04 -1.24427950E-04 -2.66540107E-04
  8.53577323E-06  9.70615189E-06  1.71282304E-04  1.24168530E-04  4.29346883E-06
  5.05955161E-05  3.90906497E-05 -1.29954676E-06 -2.79325901E-06 -2.96811040E-06