 Entering Gaussian System, Link 0=g16
 Input=hoono_a1_99p54208.gjf
 Output=hoono_a1_99p54208.log
 Initial command:
 /sw/contrib/gaussian/g16/B01/g16/l1.exe "/scr/Gau-10296.inp" -scrdir="/scr/"
 Entering Link 1 = /sw/contrib/gaussian/g16/B01/g16/l1.exe PID=     10297.
  
 Copyright (c) 1988-2017, Gaussian, Inc.  All Rights Reserved.
  
 This is part of the Gaussian(R) 16 program.  It is based on
 the Gaussian(R) 09 system (copyright 2009, Gaussian, Inc.),
 the Gaussian(R) 03 system (copyright 2003, Gaussian, Inc.),
 the Gaussian(R) 98 system (copyright 1998, Gaussian, Inc.),
 the Gaussian(R) 94 system (copyright 1995, Gaussian, Inc.),
 the Gaussian 92(TM) system (copyright 1992, Gaussian, Inc.),
 the Gaussian 90(TM) system (copyright 1990, Gaussian, Inc.),
 the Gaussian 88(TM) system (copyright 1988, Gaussian, Inc.),
 the Gaussian 86(TM) system (copyright 1986, Carnegie Mellon
 University), and the Gaussian 82(TM) system (copyright 1983,
 Carnegie Mellon University). Gaussian is a federally registered
 trademark of Gaussian, Inc.
  
 This software contains proprietary and confidential information,
 including trade secrets, belonging to Gaussian, Inc.
  
 This software is provided under written license and may be
 used, copied, transmitted, or stored only in accord with that
 written license.
  
 The following legend is applicable only to US Government
 contracts under FAR:
  
                    RESTRICTED RIGHTS LEGEND
  
 Use, reproduction and disclosure by the US Government is
 subject to restrictions as set forth in subparagraphs (a)
 and (c) of the Commercial Computer Software - Restricted
 Rights clause in FAR 52.227-19.
  
 Gaussian, Inc.
 340 Quinnipiac St., Bldg. 40, Wallingford CT 06492
  
  
 ---------------------------------------------------------------
 Warning -- This program may not be used in any manner that
 competes with the business of Gaussian, Inc. or will provide
 assistance to any competitor of Gaussian, Inc.  The licensee
 of this program is prohibited from giving any competitor of
 Gaussian, Inc. access to this program.  By using this program,
 the user acknowledges that Gaussian, Inc. is engaged in the
 business of creating and licensing software in the field of
 computational chemistry and represents and warrants to the
 licensee that it is not a competitor of Gaussian, Inc. and that
 it will not use this program in any manner prohibited above.
 ---------------------------------------------------------------
  

 Cite this work as:
 Gaussian 16, Revision B.01,
 M. J. Frisch, G. W. Trucks, H. B. Schlegel, G. E. Scuseria, 
 M. A. Robb, J. R. Cheeseman, G. Scalmani, V. Barone, 
 G. A. Petersson, H. Nakatsuji, X. Li, M. Caricato, A. V. Marenich, 
 J. Bloino, B. G. Janesko, R. Gomperts, B. Mennucci, H. P. Hratchian, 
 J. V. Ortiz, A. F. Izmaylov, J. L. Sonnenberg, D. Williams-Young, 
 F. Ding, F. Lipparini, F. Egidi, J. Goings, B. Peng, A. Petrone, 
 T. Henderson, D. Ranasinghe, V. G. Zakrzewski, J. Gao, N. Rega, 
 G. Zheng, W. Liang, M. Hada, M. Ehara, K. Toyota, R. Fukuda, 
 J. Hasegawa, M. Ishida, T. Nakajima, Y. Honda, O. Kitao, H. Nakai, 
 T. Vreven, K. Throssell, J. A. Montgomery, Jr., J. E. Peralta, 
 F. Ogliaro, M. J. Bearpark, J. J. Heyd, E. N. Brothers, K. N. Kudin, 
 V. N. Staroverov, T. A. Keith, R. Kobayashi, J. Normand, 
 K. Raghavachari, A. P. Rendell, J. C. Burant, S. S. Iyengar, 
 J. Tomasi, M. Cossi, J. M. Millam, M. Klene, C. Adamo, R. Cammi, 
 J. W. Ochterski, R. L. Martin, K. Morokuma, O. Farkas, 
 J. B. Foresman, and D. J. Fox, Gaussian, Inc., Wallingford CT, 2016.
 
 ******************************************
 Gaussian 16:  ES64L-G16RevB.01 20-Dec-2017
                 6-Mar-2022 
 ******************************************
 %nproc=28
 Will use up to   28 processors via shared memory.
 %mem=120GB
 %chk=hoono_a1_99p54208.chk
 ---------------------------------------
 #p freq mp2/aug-cc-pvtz density=current
 ---------------------------------------
 1/10=4,30=1,38=1/1,3;
 2/12=2,17=6,18=5,40=1/2;
 3/5=16,6=1,7=10,11=9,25=1,30=1,71=2,140=1/1,2,3;
 4//1;
 5/5=2,38=5,98=1/2;
 8/6=3,8=1,10=1,19=11,30=-1/1;
 9/15=3,16=-3/6;
 11/6=1,8=1,15=11,17=12,24=-1,27=1,28=-2,29=300,32=6,42=3/1,2,10;
 10/6=2,21=1/2;
 8/6=4,8=1,10=1,19=11,30=-1/11,4;
 10/5=1,20=4/2;
 11/12=2,14=11,16=1,17=2,28=-2,42=3,76=2/2,10,12;
 6/7=2,8=2,9=2,10=2,22=-1/1;
 7/8=1,10=1,12=2,25=1,44=2/1,2,3,16;
 1/10=4,30=1/3;
 99//99;
 Leave Link    1 at Sun Mar  6 19:25:13 2022, MaxMem= 16106127360 cpu:               2.2 elap:               0.1
 (Enter /sw/contrib/gaussian/g16/B01/g16/l101.exe)
 -----
 title
 -----
 Symbolic Z-matrix:
 Charge =  0 Multiplicity = 1
 H
 O                    1    r1
 O                    2    r2       1    a1
 N                    3    r3       2    a2       1    d1       0
 O                    4    r4       3    a3       2    d2       0
       Variables:
  r1                    0.98538                  
  r2                    1.42674                  
  r3                    1.38111                  
  r4                    1.19479                  
  a1                   99.54209                  
  a2                  113.13777                  
  a3                  114.33392                  
  d1                    0.                       
  d2                    0.                       
 
 ITRead=  0  0  0  0  0
 MicOpt= -1 -1 -1 -1 -1
 NAtoms=      5 NQM=        5 NQMF=       0 NMMI=      0 NMMIF=      0
                NMic=       0 NMicF=      0.
                    Isotopes and Nuclear Properties:
 (Nuclear quadrupole moments (NQMom) in fm**2, nuclear magnetic moments (NMagM)
  in nuclear magnetons)

  Atom         1           2           3           4           5
 IAtWgt=           1          16          16          14          16
 AtmWgt=   1.0078250  15.9949146  15.9949146  14.0030740  15.9949146
 NucSpn=           1           0           0           2           0
 AtZEff=  -0.0000000  -0.0000000  -0.0000000  -0.0000000  -0.0000000
 NQMom=    0.0000000   0.0000000   0.0000000   2.0440000   0.0000000
 NMagM=    2.7928460   0.0000000   0.0000000   0.4037610   0.0000000
 AtZNuc=   1.0000000   8.0000000   8.0000000   7.0000000   8.0000000
 Leave Link  101 at Sun Mar  6 19:25:13 2022, MaxMem= 16106127360 cpu:               2.8 elap:               0.1
 (Enter /sw/contrib/gaussian/g16/B01/g16/l103.exe)

 GradGradGradGradGradGradGradGradGradGradGradGradGradGradGradGradGradGrad
 Berny optimization.
 Initialization pass.
                       ----------------------------
                       !    Initial Parameters    !
                       ! (Angstroms and Degrees)  !
 ----------------------                            ----------------------
 !      Name          Value   Derivative information (Atomic Units)     !
 ------------------------------------------------------------------------
 !       r1          0.9854   calculate D2E/DX2 analytically            !
 !       r2          1.4267   calculate D2E/DX2 analytically            !
 !       r3          1.3811   calculate D2E/DX2 analytically            !
 !       r4          1.1948   calculate D2E/DX2 analytically            !
 !       a1         99.5421   calculate D2E/DX2 analytically            !
 !       a2        113.1378   calculate D2E/DX2 analytically            !
 !       a3        114.3339   calculate D2E/DX2 analytically            !
 !       d1          0.0      calculate D2E/DX2 analytically            !
 !       d2          0.0      calculate D2E/DX2 analytically            !
 ------------------------------------------------------------------------
 Trust Radius=3.00D-01 FncErr=1.00D-07 GrdErr=1.00D-07 EigMax=2.50D+02 EigMin=1.00D-04
 Number of steps in this run=      2 maximum allowed number of steps=      2.
 GradGradGradGradGradGradGradGradGradGradGradGradGradGradGradGradGradGrad

 Leave Link  103 at Sun Mar  6 19:25:13 2022, MaxMem= 16106127360 cpu:               0.5 elap:               0.0
 (Enter /sw/contrib/gaussian/g16/B01/g16/l202.exe)
                          Input orientation:                          
 ---------------------------------------------------------------------
 Center     Atomic      Atomic             Coordinates (Angstroms)
 Number     Number       Type             X           Y           Z
 ---------------------------------------------------------------------
      1          1           0        0.000000    0.000000    0.000000
      2          8           0        0.000000    0.000000    0.985377
      3          8           0        1.406996    0.000000    1.221890
      4          7           0        2.152718    0.000000    0.059411
      5          8           0        1.502231    0.000000   -0.942780
 ---------------------------------------------------------------------
                    Distance matrix (angstroms):
                    1          2          3          4          5
     1  H    0.000000
     2  O    0.985377   0.000000
     3  O    1.863506   1.426737   0.000000
     4  N    2.153538   2.343418   1.381108   0.000000
     5  O    1.773564   2.444276   2.166763   1.194788   0.000000
 Stoichiometry    HNO3
 Framework group  CS[SG(HNO3)]
 Deg. of freedom     7
 Full point group                 CS      NOp   2
 Largest Abelian subgroup         CS      NOp   2
 Largest concise Abelian subgroup C1      NOp   1
                         Standard orientation:                         
 ---------------------------------------------------------------------
 Center     Atomic      Atomic             Coordinates (Angstroms)
 Number     Number       Type             X           Y           Z
 ---------------------------------------------------------------------
      1          1           0        1.091789   -0.593322   -0.000000
      2          8           0        1.316174    0.366166   -0.000000
      3          8           0        0.000000    0.916860    0.000000
      4          7           0       -0.990844   -0.045267    0.000000
      5          8           0       -0.585660   -1.169253   -0.000000
 ---------------------------------------------------------------------
 Rotational constants (GHZ):          21.3811569           8.1089072           5.8791943
 Leave Link  202 at Sun Mar  6 19:25:14 2022, MaxMem= 16106127360 cpu:               2.6 elap:               0.1
 (Enter /sw/contrib/gaussian/g16/B01/g16/l301.exe)
 Standard basis: Aug-CC-pVTZ (5D, 7F)
 Ernie: Thresh=  0.10000D-02 Tol=  0.10000D-05 Strict=F.
 Ernie:  12 primitive shells out of 131 were deleted.
 There are   166 symmetry adapted cartesian basis functions of A'  symmetry.
 There are    79 symmetry adapted cartesian basis functions of A"  symmetry.
 There are   136 symmetry adapted basis functions of A'  symmetry.
 There are    71 symmetry adapted basis functions of A"  symmetry.
   207 basis functions,   315 primitive gaussians,   245 cartesian basis functions
    16 alpha electrons       16 beta electrons
       nuclear repulsion energy       122.8036944096 Hartrees.
 IExCor=    0 DFT=F Ex=HF Corr=None ExCW=0 ScaHFX=  1.000000
 ScaDFX=  1.000000  1.000000  1.000000  1.000000 ScalE2=  1.000000  1.000000
 IRadAn=      5 IRanWt=     -1 IRanGd=            0 ICorTp=0 IEmpDi=  4
 NAtoms=    5 NActive=    5 NUniq=    5 SFac= 1.00D+00 NAtFMM=   60 NAOKFM=F Big=F
 Integral buffers will be    131072 words long.
 Raffenetti 1 integral format.
 Two-electron integral symmetry is turned on.
 Leave Link  301 at Sun Mar  6 19:25:14 2022, MaxMem= 16106127360 cpu:               1.4 elap:               0.1
 (Enter /sw/contrib/gaussian/g16/B01/g16/l302.exe)
 NPDir=0 NMtPBC=     1 NCelOv=     1 NCel=       1 NClECP=     1 NCelD=      1
         NCelK=      1 NCelE2=     1 NClLst=     1 CellRange=     0.0.
 One-electron integrals computed using PRISM.
 One-electron integral symmetry used in STVInt
 NBasis=   207 RedAO= T EigKep=  1.31D-04  NBF=   136    71
 NBsUse=   207 1.00D-06 EigRej= -1.00D+00 NBFU=   136    71
 Leave Link  302 at Sun Mar  6 19:25:14 2022, MaxMem= 16106127360 cpu:               4.6 elap:               0.2
 (Enter /sw/contrib/gaussian/g16/B01/g16/l303.exe)
 DipDrv:  MaxL=1.
 Leave Link  303 at Sun Mar  6 19:25:14 2022, MaxMem= 16106127360 cpu:               0.9 elap:               0.1
 (Enter /sw/contrib/gaussian/g16/B01/g16/l401.exe)
 ExpMin= 2.53D-02 ExpMax= 1.53D+04 ExpMxC= 5.22D+02 IAcc=3 IRadAn=         5 AccDes= 0.00D+00
 Harris functional with IExCor=  205 and IRadAn=       5 diagonalized for initial guess.
 HarFok:  IExCor=  205 AccDes= 0.00D+00 IRadAn=         5 IDoV= 1 UseB2=F ITyADJ=14
 ICtDFT=  3500011 ScaDFX=  1.000000  1.000000  1.000000  1.000000
 FoFCou: FMM=F IPFlag=           0 FMFlag=      100000 FMFlg1=           0
         NFxFlg=           0 DoJE=T BraDBF=F KetDBF=T FulRan=T
         wScrn=  0.000000 ICntrl=       500 IOpCl=  0 I1Cent=   200000004 NGrid=           0
         NMat0=    1 NMatS0=      1 NMatT0=    0 NMatD0=    1 NMtDS0=    0 NMtDT0=    0
 Petite list used in FoFCou.
 Harris En= -279.644912145126    
 JPrj=0 DoOrth=F DoCkMO=F.
 Initial guess orbital symmetries:
       Occupied  (A') (A') (A') (A') (A') (A') (A') (A') (A') (A')
                 (A") (A') (A") (A') (A") (A')
       Virtual   (A") (A') (A') (A') (A') (A") (A') (A') (A') (A')
                 (A") (A') (A") (A') (A') (A") (A') (A') (A") (A')
                 (A') (A') (A') (A') (A") (A') (A') (A') (A") (A')
                 (A') (A") (A") (A') (A') (A") (A') (A") (A') (A")
                 (A') (A") (A') (A") (A') (A') (A') (A") (A') (A')
                 (A') (A") (A') (A") (A') (A") (A') (A') (A') (A")
                 (A') (A') (A") (A') (A') (A') (A") (A") (A') (A')
                 (A") (A') (A") (A") (A') (A') (A") (A') (A') (A')
                 (A") (A') (A') (A") (A') (A") (A') (A") (A') (A')
                 (A') (A") (A') (A") (A') (A') (A") (A') (A") (A')
                 (A") (A') (A') (A") (A") (A') (A') (A') (A") (A')
                 (A") (A') (A') (A') (A") (A') (A') (A') (A") (A')
                 (A") (A') (A') (A") (A") (A") (A") (A') (A') (A')
                 (A') (A') (A') (A") (A') (A") (A') (A") (A') (A')
                 (A") (A") (A') (A') (A') (A") (A') (A') (A') (A")
                 (A') (A') (A') (A") (A') (A") (A") (A') (A') (A")
                 (A') (A") (A") (A') (A") (A') (A') (A") (A") (A')
                 (A") (A") (A") (A') (A") (A') (A') (A') (A") (A')
                 (A') (A') (A') (A') (A') (A') (A') (A') (A') (A')
                 (A')
 The electronic state of the initial guess is 1-A'.
 Leave Link  401 at Sun Mar  6 19:25:14 2022, MaxMem= 16106127360 cpu:               7.6 elap:               0.4
 (Enter /sw/contrib/gaussian/g16/B01/g16/l502.exe)
 Keep R1 ints in memory in symmetry-blocked form, NReq=348887737.
 FoFCou: FMM=F IPFlag=           0 FMFlag=           0 FMFlg1=           0
         NFxFlg=           0 DoJE=F BraDBF=F KetDBF=F FulRan=T
         wScrn=  0.000000 ICntrl=       600 IOpCl=  0 I1Cent=           0 NGrid=           0
         NMat0=    1 NMatS0=  21528 NMatT0=    0 NMatD0=    1 NMtDS0=    0 NMtDT0=    0
 Petite list used in FoFCou.
 Closed shell SCF:
 Using DIIS extrapolation, IDIIS=  1040.
 NGot= 16106127360 LenX= 15988850015 LenY= 15988789549
 Requested convergence on RMS density matrix=1.00D-08 within 128 cycles.
 Requested convergence on MAX density matrix=1.00D-06.
 Requested convergence on             energy=1.00D-06.
 No special actions if energy rises.

 Cycle   1  Pass 1  IDiag  1:
 E= -279.363970329298    
 DIIS: error= 2.74D-02 at cycle   1 NSaved=   1.
 NSaved= 1 IEnMin= 1 EnMin= -279.363970329298     IErMin= 1 ErrMin= 2.74D-02
 ErrMax= 2.74D-02  0.00D+00 EMaxC= 1.00D-01 BMatC= 4.50D-01 BMatP= 4.50D-01
 IDIUse=3 WtCom= 7.26D-01 WtEn= 2.74D-01
 Coeff-Com:  0.100D+01
 Coeff-En:   0.100D+01
 Coeff:      0.100D+01
 Gap=     0.497 Goal=   None    Shift=    0.000
 GapD=    0.497 DampG=2.000 DampE=0.500 DampFc=1.0000 IDamp=-1.
 RMSDP=1.68D-03 MaxDP=8.82D-02              OVMax= 1.22D-01

 Cycle   2  Pass 1  IDiag  1:
 E= -279.446161034231     Delta-E=       -0.082190704933 Rises=F Damp=F
 DIIS: error= 1.95D-02 at cycle   2 NSaved=   2.
 NSaved= 2 IEnMin= 2 EnMin= -279.446161034231     IErMin= 2 ErrMin= 1.95D-02
 ErrMax= 1.95D-02  0.00D+00 EMaxC= 1.00D-01 BMatC= 8.56D-02 BMatP= 4.50D-01
 IDIUse=3 WtCom= 8.05D-01 WtEn= 1.95D-01
 Coeff-Com:  0.218D+00 0.782D+00
 Coeff-En:   0.746D-01 0.925D+00
 Coeff:      0.190D+00 0.810D+00
 Gap=     0.562 Goal=   None    Shift=    0.000
 RMSDP=9.67D-04 MaxDP=3.71D-02 DE=-8.22D-02 OVMax= 9.13D-02

 Cycle   3  Pass 1  IDiag  1:
 E= -279.483720831115     Delta-E=       -0.037559796884 Rises=F Damp=F
 DIIS: error= 1.13D-02 at cycle   3 NSaved=   3.
 NSaved= 3 IEnMin= 3 EnMin= -279.483720831115     IErMin= 3 ErrMin= 1.13D-02
 ErrMax= 1.13D-02  0.00D+00 EMaxC= 1.00D-01 BMatC= 3.10D-02 BMatP= 8.56D-02
 IDIUse=3 WtCom= 8.87D-01 WtEn= 1.13D-01
 Coeff-Com: -0.347D-01 0.365D+00 0.670D+00
 Coeff-En:   0.000D+00 0.219D+00 0.781D+00
 Coeff:     -0.308D-01 0.349D+00 0.682D+00
 Gap=     0.542 Goal=   None    Shift=    0.000
 RMSDP=4.11D-04 MaxDP=1.59D-02 DE=-3.76D-02 OVMax= 3.88D-02

 Cycle   4  Pass 1  IDiag  1:
 E= -279.504870015512     Delta-E=       -0.021149184397 Rises=F Damp=F
 DIIS: error= 1.67D-03 at cycle   4 NSaved=   4.
 NSaved= 4 IEnMin= 4 EnMin= -279.504870015512     IErMin= 4 ErrMin= 1.67D-03
 ErrMax= 1.67D-03  0.00D+00 EMaxC= 1.00D-01 BMatC= 6.05D-04 BMatP= 3.10D-02
 IDIUse=3 WtCom= 9.83D-01 WtEn= 1.67D-02
 Coeff-Com: -0.120D-01 0.477D-01 0.155D+00 0.809D+00
 Coeff-En:   0.000D+00 0.000D+00 0.000D+00 0.100D+01
 Coeff:     -0.118D-01 0.469D-01 0.153D+00 0.812D+00
 Gap=     0.528 Goal=   None    Shift=    0.000
 RMSDP=9.89D-05 MaxDP=2.31D-03 DE=-2.11D-02 OVMax= 1.18D-02

 Cycle   5  Pass 1  IDiag  1:
 E= -279.505684289707     Delta-E=       -0.000814274195 Rises=F Damp=F
 DIIS: error= 1.11D-03 at cycle   5 NSaved=   5.
 NSaved= 5 IEnMin= 5 EnMin= -279.505684289707     IErMin= 5 ErrMin= 1.11D-03
 ErrMax= 1.11D-03  0.00D+00 EMaxC= 1.00D-01 BMatC= 1.03D-04 BMatP= 6.05D-04
 IDIUse=3 WtCom= 9.89D-01 WtEn= 1.11D-02
 Coeff-Com:  0.541D-02-0.664D-01-0.111D+00 0.598D-01 0.111D+01
 Coeff-En:   0.000D+00 0.000D+00 0.000D+00 0.000D+00 0.100D+01
 Coeff:      0.535D-02-0.657D-01-0.110D+00 0.591D-01 0.111D+01
 Gap=     0.532 Goal=   None    Shift=    0.000
 RMSDP=8.01D-05 MaxDP=2.12D-03 DE=-8.14D-04 OVMax= 1.30D-02

 Cycle   6  Pass 1  IDiag  1:
 E= -279.506048714382     Delta-E=       -0.000364424675 Rises=F Damp=F
 DIIS: error= 3.38D-04 at cycle   6 NSaved=   6.
 NSaved= 6 IEnMin= 6 EnMin= -279.506048714382     IErMin= 6 ErrMin= 3.38D-04
 ErrMax= 3.38D-04  0.00D+00 EMaxC= 1.00D-01 BMatC= 2.41D-05 BMatP= 1.03D-04
 IDIUse=3 WtCom= 9.97D-01 WtEn= 3.38D-03
 Coeff-Com:  0.189D-02-0.708D-02-0.179D-01-0.183D+00 0.119D-01 0.119D+01
 Coeff-En:   0.000D+00 0.000D+00 0.000D+00 0.000D+00 0.000D+00 0.100D+01
 Coeff:      0.188D-02-0.706D-02-0.178D-01-0.182D+00 0.118D-01 0.119D+01
 Gap=     0.532 Goal=   None    Shift=    0.000
 RMSDP=4.67D-05 MaxDP=1.07D-03 DE=-3.64D-04 OVMax= 6.11D-03

 Cycle   7  Pass 1  IDiag  1:
 E= -279.506134742824     Delta-E=       -0.000086028441 Rises=F Damp=F
 DIIS: error= 1.28D-04 at cycle   7 NSaved=   7.
 NSaved= 7 IEnMin= 7 EnMin= -279.506134742824     IErMin= 7 ErrMin= 1.28D-04
 ErrMax= 1.28D-04  0.00D+00 EMaxC= 1.00D-01 BMatC= 3.56D-06 BMatP= 2.41D-05
 IDIUse=3 WtCom= 9.99D-01 WtEn= 1.28D-03
 Coeff-Com: -0.109D-02 0.114D-01 0.250D-01 0.162D-01-0.180D+00-0.150D+00
 Coeff-Com:  0.128D+01
 Coeff-En:   0.000D+00 0.000D+00 0.000D+00 0.000D+00 0.000D+00 0.000D+00
 Coeff-En:   0.100D+01
 Coeff:     -0.109D-02 0.114D-01 0.249D-01 0.161D-01-0.180D+00-0.150D+00
 Coeff:      0.128D+01
 Gap=     0.533 Goal=   None    Shift=    0.000
 RMSDP=1.75D-05 MaxDP=5.11D-04 DE=-8.60D-05 OVMax= 2.33D-03

 Cycle   8  Pass 1  IDiag  1:
 E= -279.506146721884     Delta-E=       -0.000011979060 Rises=F Damp=F
 DIIS: error= 4.71D-05 at cycle   8 NSaved=   8.
 NSaved= 8 IEnMin= 8 EnMin= -279.506146721884     IErMin= 8 ErrMin= 4.71D-05
 ErrMax= 4.71D-05  0.00D+00 EMaxC= 1.00D-01 BMatC= 6.00D-07 BMatP= 3.56D-06
 IDIUse=1 WtCom= 1.00D+00 WtEn= 0.00D+00
 Coeff-Com: -0.560D-03 0.411D-02 0.972D-02 0.247D-01-0.566D-01-0.193D+00
 Coeff-Com:  0.353D+00 0.858D+00
 Coeff:     -0.560D-03 0.411D-02 0.972D-02 0.247D-01-0.566D-01-0.193D+00
 Coeff:      0.353D+00 0.858D+00
 Gap=     0.533 Goal=   None    Shift=    0.000
 RMSDP=5.45D-06 MaxDP=1.54D-04 DE=-1.20D-05 OVMax= 6.50D-04

 Cycle   9  Pass 1  IDiag  1:
 E= -279.506148101828     Delta-E=       -0.000001379945 Rises=F Damp=F
 DIIS: error= 2.41D-05 at cycle   9 NSaved=   9.
 NSaved= 9 IEnMin= 9 EnMin= -279.506148101828     IErMin= 9 ErrMin= 2.41D-05
 ErrMax= 2.41D-05  0.00D+00 EMaxC= 1.00D-01 BMatC= 1.17D-07 BMatP= 6.00D-07
 IDIUse=1 WtCom= 1.00D+00 WtEn= 0.00D+00
 Coeff-Com:  0.241D-03-0.257D-02-0.534D-02-0.557D-02 0.468D-01 0.491D-01
 Coeff-Com: -0.340D+00 0.319D-01 0.123D+01
 Coeff:      0.241D-03-0.257D-02-0.534D-02-0.557D-02 0.468D-01 0.491D-01
 Coeff:     -0.340D+00 0.319D-01 0.123D+01
 Gap=     0.533 Goal=   None    Shift=    0.000
 RMSDP=2.47D-06 MaxDP=6.72D-05 DE=-1.38D-06 OVMax= 2.58D-04

 Cycle  10  Pass 1  IDiag  1:
 E= -279.506148366004     Delta-E=       -0.000000264175 Rises=F Damp=F
 DIIS: error= 5.78D-06 at cycle  10 NSaved=  10.
 NSaved=10 IEnMin=10 EnMin= -279.506148366004     IErMin=10 ErrMin= 5.78D-06
 ErrMax= 5.78D-06  0.00D+00 EMaxC= 1.00D-01 BMatC= 8.24D-09 BMatP= 1.17D-07
 IDIUse=1 WtCom= 1.00D+00 WtEn= 0.00D+00
 Coeff-Com: -0.374D-04 0.486D-03 0.117D-02-0.188D-02-0.107D-01 0.558D-02
 Coeff-Com:  0.711D-01-0.536D-01-0.430D+00 0.142D+01
 Coeff:     -0.374D-04 0.486D-03 0.117D-02-0.188D-02-0.107D-01 0.558D-02
 Coeff:      0.711D-01-0.536D-01-0.430D+00 0.142D+01
 Gap=     0.533 Goal=   None    Shift=    0.000
 RMSDP=7.03D-07 MaxDP=2.53D-05 DE=-2.64D-07 OVMax= 7.53D-05

 Cycle  11  Pass 1  IDiag  1:
 E= -279.506148390885     Delta-E=       -0.000000024881 Rises=F Damp=F
 DIIS: error= 2.23D-06 at cycle  11 NSaved=  11.
 NSaved=11 IEnMin=11 EnMin= -279.506148390885     IErMin=11 ErrMin= 2.23D-06
 ErrMax= 2.23D-06  0.00D+00 EMaxC= 1.00D-01 BMatC= 8.50D-10 BMatP= 8.24D-09
 IDIUse=1 WtCom= 1.00D+00 WtEn= 0.00D+00
 Coeff-Com: -0.167D-04 0.170D-03 0.355D-03 0.879D-03-0.226D-02-0.722D-02
 Coeff-Com:  0.196D-01 0.191D-01-0.534D-01-0.315D+00 0.134D+01
 Coeff:     -0.167D-04 0.170D-03 0.355D-03 0.879D-03-0.226D-02-0.722D-02
 Coeff:      0.196D-01 0.191D-01-0.534D-01-0.315D+00 0.134D+01
 Gap=     0.533 Goal=   None    Shift=    0.000
 RMSDP=2.44D-07 MaxDP=9.05D-06 DE=-2.49D-08 OVMax= 2.85D-05

 Cycle  12  Pass 1  IDiag  1:
 E= -279.506148393922     Delta-E=       -0.000000003037 Rises=F Damp=F
 DIIS: error= 7.42D-07 at cycle  12 NSaved=  12.
 NSaved=12 IEnMin=12 EnMin= -279.506148393922     IErMin=12 ErrMin= 7.42D-07
 ErrMax= 7.42D-07  0.00D+00 EMaxC= 1.00D-01 BMatC= 9.06D-11 BMatP= 8.50D-10
 IDIUse=1 WtCom= 1.00D+00 WtEn= 0.00D+00
 Coeff-Com:  0.253D-05-0.451D-04-0.979D-04 0.149D-03 0.114D-02-0.854D-03
 Coeff-Com: -0.729D-02 0.681D-02 0.416D-01-0.120D+00-0.174D+00 0.125D+01
 Coeff:      0.253D-05-0.451D-04-0.979D-04 0.149D-03 0.114D-02-0.854D-03
 Coeff:     -0.729D-02 0.681D-02 0.416D-01-0.120D+00-0.174D+00 0.125D+01
 Gap=     0.533 Goal=   None    Shift=    0.000
 RMSDP=8.62D-08 MaxDP=2.82D-06 DE=-3.04D-09 OVMax= 1.00D-05

 Cycle  13  Pass 1  IDiag  1:
 E= -279.506148394240     Delta-E=       -0.000000000318 Rises=F Damp=F
 DIIS: error= 1.68D-07 at cycle  13 NSaved=  13.
 NSaved=13 IEnMin=13 EnMin= -279.506148394240     IErMin=13 ErrMin= 1.68D-07
 ErrMax= 1.68D-07  0.00D+00 EMaxC= 1.00D-01 BMatC= 7.63D-12 BMatP= 9.06D-11
 IDIUse=1 WtCom= 1.00D+00 WtEn= 0.00D+00
 Coeff-Com:  0.135D-05-0.129D-04-0.188D-04-0.121D-03 0.564D-04 0.943D-03
 Coeff-Com: -0.115D-02-0.253D-02-0.159D-02 0.545D-01-0.129D+00-0.152D+00
 Coeff-Com:  0.123D+01
 Coeff:      0.135D-05-0.129D-04-0.188D-04-0.121D-03 0.564D-04 0.943D-03
 Coeff:     -0.115D-02-0.253D-02-0.159D-02 0.545D-01-0.129D+00-0.152D+00
 Coeff:      0.123D+01
 Gap=     0.533 Goal=   None    Shift=    0.000
 RMSDP=2.30D-08 MaxDP=6.86D-07 DE=-3.18D-10 OVMax= 2.11D-06

 Cycle  14  Pass 1  IDiag  1:
 E= -279.506148394261     Delta-E=       -0.000000000021 Rises=F Damp=F
 DIIS: error= 4.13D-08 at cycle  14 NSaved=  14.
 NSaved=14 IEnMin=14 EnMin= -279.506148394261     IErMin=14 ErrMin= 4.13D-08
 ErrMax= 4.13D-08  0.00D+00 EMaxC= 1.00D-01 BMatC= 5.04D-13 BMatP= 7.63D-12
 IDIUse=1 WtCom= 1.00D+00 WtEn= 0.00D+00
 Coeff-Com: -0.296D-06 0.446D-05 0.899D-05-0.493D-05-0.114D-03 0.683D-04
 Coeff-Com:  0.645D-03-0.345D-03-0.364D-02 0.844D-02 0.165D-01-0.896D-01
 Coeff-Com: -0.230D-01 0.109D+01
 Coeff:     -0.296D-06 0.446D-05 0.899D-05-0.493D-05-0.114D-03 0.683D-04
 Coeff:      0.645D-03-0.345D-03-0.364D-02 0.844D-02 0.165D-01-0.896D-01
 Coeff:     -0.230D-01 0.109D+01
 Gap=     0.533 Goal=   None    Shift=    0.000
 RMSDP=4.46D-09 MaxDP=1.11D-07 DE=-2.07D-11 OVMax= 4.77D-07

 SCF Done:  E(RHF) =  -279.506148394     A.U. after   14 cycles
            NFock= 14  Conv=0.45D-08     -V/T= 2.0022
 KE= 2.788899193544D+02 PE=-9.064660761276D+02 EE= 2.252663139693D+02
 Leave Link  502 at Sun Mar  6 19:25:18 2022, MaxMem= 16106127360 cpu:              55.4 elap:               3.5
 (Enter /sw/contrib/gaussian/g16/B01/g16/l801.exe)
 ExpMin= 2.53D-02 ExpMax= 1.53D+04 ExpMxC= 5.22D+02 IAcc=3 IRadAn=         5 AccDes= 0.00D+00
 HarFok:  IExCor=  205 AccDes= 0.00D+00 IRadAn=         5 IDoV=-2 UseB2=F ITyADJ=14
 ICtDFT= 12500011 ScaDFX=  1.000000  1.000000  1.000000  1.000000
 Largest valence mixing into a core orbital is  2.07D-04
 Largest core mixing into a valence orbital is  3.11D-05
 Range of M.O.s used for correlation:     5   207
 NBasis=   207 NAE=    16 NBE=    16 NFC=     4 NFV=     0
 NROrb=    203 NOA=    12 NOB=    12 NVA=   191 NVB=   191

 **** Warning!!: The largest alpha MO coefficient is  0.16517160D+02

 Leave Link  801 at Sun Mar  6 19:25:18 2022, MaxMem= 16106127360 cpu:               3.6 elap:               0.2
 (Enter /sw/contrib/gaussian/g16/B01/g16/l906.exe)
 Frozen-core derivative calculation, NFC=   4 NFV=   0.
 FulOut=F Deriv=T AODrv=T NAtomX=     5
   MMem=           0  MDisk=          12 MDiskD=          12
  W3Min=      811440 MinDsk=     2425030 NBas6D=         245
 NBas2D=       30762    NTT=       30135    LW2=     7400000
    MDV= 16105571532 MDiskM=      328644 NBas2p=       30759
 Disk-based method using ON**2 memory for 12 occupieds at a time.
 Permanent disk used for amplitudes=    11516536 words.
 Estimated scratch disk usage=   321863743 words.
 IMap=   1   2   3   4   5   6   7   8   9  10  11  12  13  14  15  16
 Actual    scratch disk usage=   310892607 words.
 JobTyp=1 Pass  1:  I=   5 to  16 NPSUse= 28 ParTrn=T ParDer=T DoDerP=T.
 (rs|ai) integrals will be sorted in core.
 Spin components of T(2) and E(2):
     alpha-alpha T2 =       0.3482043499D-01 E2=     -0.1246094117D+00
     alpha-beta  T2 =       0.1845379280D+00 E2=     -0.6998278028D+00
     beta-beta   T2 =       0.3482043499D-01 E2=     -0.1246094117D+00
 The integrals were generated   1 times.
 ANorm=    0.1119901245D+01
 E2 =    -0.9490466263D+00 EUMP2 =    -0.28045519502055D+03
 Leave Link  906 at Sun Mar  6 19:26:54 2022, MaxMem= 16106127360 cpu:            2692.4 elap:              96.3
 (Enter /sw/contrib/gaussian/g16/B01/g16/l1101.exe)
 Using compressed Sx but separate Hx and Fx, NAtomX=     5.
 Will process      6 centers per pass.
 Leave Link 1101 at Sun Mar  6 19:26:55 2022, MaxMem= 16106127360 cpu:               5.1 elap:               0.2
 (Enter /sw/contrib/gaussian/g16/B01/g16/l1102.exe)
 Leave Link 1102 at Sun Mar  6 19:26:55 2022, MaxMem= 16106127360 cpu:               0.6 elap:               0.0
 (Enter /sw/contrib/gaussian/g16/B01/g16/l1110.exe)
 Forming Gx(P) for the SCF density, NAtomX=     5.
 Integral derivatives from FoFJK, PRISM(SPDF).
 Do as many integral derivatives as possible in FoFJK.
 G2DrvN: MDV=   16106126844.
 G2DrvN: will do     6 centers at a time, making    1 passes.
 Calling FoFCou, ICntrl=  3107 FMM=F I1Cent=   0 AccDes= 0.00D+00.
 FoFJK:  IHMeth= 1 ICntrl=    3107 DoSepK=F KAlg= 0 I1Cent=           0 FoldK=F
 IRaf=         0 NMat=       1 IRICut=       1 DoRegI=T DoRafI=F ISym2E= 1 IDoP0=0 IntGTp=1.
 FoFCou: FMM=F IPFlag=           0 FMFlag=      100000 FMFlg1=           0
         NFxFlg=           0 DoJE=F BraDBF=F KetDBF=F FulRan=T
         wScrn=  0.000000 ICntrl=      3107 IOpCl=  0 I1Cent=           0 NGrid=           0
         NMat0=    1 NMatS0=      1 NMatT0=    0 NMatD0=    1 NMtDS0=    0 NMtDT0=    0
 Petite list used in FoFCou.
 End of G2Drv F.D. properties file   721 does not exist.
 End of G2Drv F.D. properties file   722 does not exist.
 End of G2Drv F.D. properties file   788 does not exist.
 Leave Link 1110 at Sun Mar  6 19:26:58 2022, MaxMem= 16106127360 cpu:              87.2 elap:               3.1
 (Enter /sw/contrib/gaussian/g16/B01/g16/l1002.exe)
 Minotr:  Closed shell wavefunction.
          IDoAtm=11111
          Frozen-core window.
          Direct CPHF calculation.
          Differentiating once with respect to electric field.
                with respect to dipole field.
          Differentiating once with respect to nuclear coordinates.
          Requested convergence is 1.0D-08 RMS, and 1.0D-07 maximum.
          Secondary convergence is 1.0D-12 RMS, and 1.0D-12 maximum.
          NewPWx=T KeepS1=T KeepF1=T KeepIn=T MapXYZ=F SortEE=F KeepMc=T.
 Keep R1 ints in memory in symmetry-blocked form, NReq=348888983.
 FoFCou: FMM=F IPFlag=           0 FMFlag=           0 FMFlg1=           0
         NFxFlg=           0 DoJE=F BraDBF=F KetDBF=F FulRan=T
         wScrn=  0.000000 ICntrl=       600 IOpCl=  0 I1Cent=           0 NGrid=           0
         NMat0=    1 NMatS0=  21528 NMatT0=    0 NMatD0=    1 NMtDS0=    0 NMtDT0=    0
 Petite list used in FoFCou.
          MDV=   16106127360 using IRadAn=       1.
          Solving linear equations simultaneously, MaxMat=       0.
          There are    18 degrees of freedom in the 1st order CPHF.  IDoFFX=6 NUNeed=    18.
     15 vectors produced by pass  0 Test12= 1.70D-14 5.56D-09 XBig12= 7.90D+00 1.23D+00.
 AX will form    15 AO Fock derivatives at one time.
     15 vectors produced by pass  1 Test12= 1.70D-14 5.56D-09 XBig12= 1.35D+00 2.23D-01.
     15 vectors produced by pass  2 Test12= 1.70D-14 5.56D-09 XBig12= 6.80D-02 5.74D-02.
     15 vectors produced by pass  3 Test12= 1.70D-14 5.56D-09 XBig12= 1.93D-03 1.05D-02.
     15 vectors produced by pass  4 Test12= 1.70D-14 5.56D-09 XBig12= 4.22D-05 1.25D-03.
     15 vectors produced by pass  5 Test12= 1.70D-14 5.56D-09 XBig12= 5.78D-07 1.15D-04.
     15 vectors produced by pass  6 Test12= 1.70D-14 5.56D-09 XBig12= 4.44D-09 1.15D-05.
     14 vectors produced by pass  7 Test12= 1.70D-14 5.56D-09 XBig12= 3.41D-11 7.36D-07.
      3 vectors produced by pass  8 Test12= 1.70D-14 5.56D-09 XBig12= 2.42D-13 6.06D-08.
      1 vectors produced by pass  9 Test12= 1.70D-14 5.56D-09 XBig12= 1.64D-15 7.06D-09.
 InvSVY:  IOpt=1 It=  1 EMax= 8.88D-16
 Solved reduced A of dimension   123 with    15 vectors.
 FullF1:  Do perturbations      1 to      18.
 Saving first derivative matrices.
 End of Minotr F.D. properties file   721 does not exist.
 End of Minotr F.D. properties file   722 does not exist.
 End of Minotr F.D. properties file   788 does not exist.
 Leave Link 1002 at Sun Mar  6 19:27:01 2022, MaxMem= 16106127360 cpu:              78.9 elap:               3.0
 (Enter /sw/contrib/gaussian/g16/B01/g16/l811.exe)
 MDV= 16106127360.
 Form MO integral derivatives with frozen-active canonical formalism.
 MOERI=1 MOERIx=1 NAtoms=     5 NAtomX=     5.
 Discarding MO integrals.
 MO basis two electron integral derivatives will not be stored on disk.
 IAlg= 3 DoFC=T DoPWx=T Debug=F.
 Frozen-core window:  NFC=   4 NFV=   0.
 Reordered first order wavefunction length =     18678272
 In DefCFB: NBatch=  1 ICI= 16 ICA=191 LFMax= 96
            Large arrays: LIAPS=   619940160 LIARS=   288257200 words.
 In StABat: MaxSiz= 55 MinSiz= 25 NAtomB=  5
 DoIAMN: NPSUse= 28.
 Leave Link  811 at Sun Mar  6 19:28:22 2022, MaxMem= 16106127360 cpu:            2271.8 elap:              81.3
 (Enter /sw/contrib/gaussian/g16/B01/g16/l804.exe)
 Frozen-core window:  NFC=   4 NFV=   0.
 Closed-shell transformation, MDV= 16106127360 ITran=4 ISComp=1.
 Semi-Direct transformation.
 ModeAB=           2 MOrb=            16 LenV=   16104919911
 LASXX=     67341636 LTotXX=    67341636 LenRXX=    67341636
 LTotAB=    68301760 MaxLAS=    99807120 LenRXY=    99807120
 NonZer=   134683272 LenScr=   202817536 LnRSAI=           0
 LnScr1=           0 LExtra=           0 Total=    369966292
 MaxDsk=          -1 SrtSym=           F ITran=            4
 DoSDTr:  NPSUse= 28
 JobTyp=0 Pass  1:  I=   1 to  16.
 (rs|ai) integrals will be sorted in core.
 Complete sort for first half transformation.
 First half transformation complete.
 Begin second half transformation for I=  10.
 Begin second half transformation for I=  10.
 Complete sort for second half transformation.
 Second half transformation complete.
 Spin components of T(2) and E(2):
     alpha-alpha T2 =       0.3482043499D-01 E2=     -0.1246094117D+00
     alpha-beta  T2 =       0.1845379280D+00 E2=     -0.6998278028D+00
     beta-beta   T2 =       0.3482043499D-01 E2=     -0.1246094117D+00
 ANorm=    0.1583779529D+01
 E2 =    -0.9490466263D+00 EUMP2 =    -0.28045519502055D+03
 Leave Link  804 at Sun Mar  6 19:28:37 2022, MaxMem= 16106127360 cpu:             427.9 elap:              15.3
 (Enter /sw/contrib/gaussian/g16/B01/g16/l1002.exe)
 Minotr:  Closed shell wavefunction.
          Computing MP2/KS-MP2 derivatives.
          Using Z-Vector for PSCF gradient.
          Skipping F1 and S1 gradient terms here.
          IDoAtm=11111
          Frozen-core window.
          Using MO integrals in the linear equations.
          Forming densities via direct SCF.
          Differentiating once with respect to electric field.
                with respect to dipole field.
          Differentiating once with respect to nuclear coordinates.
          Using symmetry in CPHF.
          Requested convergence is 1.0D-10 RMS, and 1.0D-09 maximum.
          NewPWx=F KeepS1=T KeepF1=T KeepIn=T MapXYZ=F SortEE=F KeepMc=T.
          MDV=   16106127360 using IRadAn=       5.
          Solving linear equations separately, MaxMat=       0.
          There are     1 degrees of freedom in the 1st order CPHF.  IDoFFX=0 NUNeed=     1.
 FoFJK:  IHMeth= 1 ICntrl=       0 DoSepK=F KAlg= 0 I1Cent=           0 FoldK=F
 IRaf=         0 NMat=       1 IRICut=       1 DoRegI=T DoRafI=F ISym2E= 0 IDoP0=0 IntGTp=1.
 FoFCou: FMM=F IPFlag=           0 FMFlag=      100000 FMFlg1=           0
         NFxFlg=           0 DoJE=F BraDBF=F KetDBF=F FulRan=T
         wScrn=  0.000000 ICntrl=         0 IOpCl=  0 I1Cent=           0 NGrid=           0
         NMat0=    1 NMatS0=      1 NMatT0=    0 NMatD0=    1 NMtDS0=    0 NMtDT0=    0
 Symmetry not used in FoFCou.
 LinEq1:  Iter=  0 NonCon=     1 RMS=6.61D-03 Max=1.71D-01 NDo=     1
 LinEq1:  Iter=  1 NonCon=     1 RMS=2.01D-03 Max=3.06D-02 NDo=     1
 LinEq1:  Iter=  2 NonCon=     1 RMS=8.90D-04 Max=1.44D-02 NDo=     1
 LinEq1:  Iter=  3 NonCon=     1 RMS=3.79D-04 Max=8.07D-03 NDo=     1
 LinEq1:  Iter=  4 NonCon=     1 RMS=1.37D-04 Max=1.66D-03 NDo=     1
 LinEq1:  Iter=  5 NonCon=     1 RMS=7.64D-05 Max=1.40D-03 NDo=     1
 LinEq1:  Iter=  6 NonCon=     1 RMS=2.44D-05 Max=2.90D-04 NDo=     1
 LinEq1:  Iter=  7 NonCon=     1 RMS=8.23D-06 Max=1.12D-04 NDo=     1
 LinEq1:  Iter=  8 NonCon=     1 RMS=4.01D-06 Max=6.22D-05 NDo=     1
 LinEq1:  Iter=  9 NonCon=     1 RMS=1.04D-06 Max=1.21D-05 NDo=     1
 LinEq1:  Iter= 10 NonCon=     1 RMS=2.32D-07 Max=2.96D-06 NDo=     1
 LinEq1:  Iter= 11 NonCon=     1 RMS=4.97D-08 Max=8.22D-07 NDo=     1
 LinEq1:  Iter= 12 NonCon=     1 RMS=1.17D-08 Max=1.78D-07 NDo=     1
 LinEq1:  Iter= 13 NonCon=     1 RMS=2.07D-09 Max=2.35D-08 NDo=     1
 LinEq1:  Iter= 14 NonCon=     1 RMS=4.30D-10 Max=5.68D-09 NDo=     1
 LinEq1:  Iter= 15 NonCon=     0 RMS=8.80D-11 Max=9.32D-10 NDo=     1
 Linear equations converged to 1.000D-10 1.000D-09 after    15 iterations.
 End of Minotr F.D. properties file   721 does not exist.
 End of Minotr F.D. properties file   722 does not exist.
 End of Minotr F.D. properties file   788 does not exist.
 Leave Link 1002 at Sun Mar  6 19:28:40 2022, MaxMem= 16106127360 cpu:              65.8 elap:               2.4
 (Enter /sw/contrib/gaussian/g16/B01/g16/l1102.exe)
 Use density number 2.
 Symmetrizing basis deriv contribution to polar:
 IMax=3 JMax=2 DiffMx= 0.00D+00
 Leave Link 1102 at Sun Mar  6 19:28:40 2022, MaxMem= 16106127360 cpu:               1.6 elap:               0.1
 (Enter /sw/contrib/gaussian/g16/B01/g16/l1110.exe)
 Forming Gx(P) for generalized density number  2 NAtomX=     5.
 Integral derivatives from FoFJK, PRISM(SPDF).
 Do as many integral derivatives as possible in FoFJK.
 G2DrvN: MDV=   16106126844.
 G2DrvN: will do     6 centers at a time, making    1 passes.
 Calling FoFCou, ICntrl=  3107 FMM=F I1Cent=   0 AccDes= 0.00D+00.
 FoFJK:  IHMeth= 1 ICntrl=    3107 DoSepK=F KAlg= 0 I1Cent=           0 FoldK=F
 IRaf=         0 NMat=       1 IRICut=       1 DoRegI=T DoRafI=F ISym2E= 1 IDoP0=0 IntGTp=1.
 FoFCou: FMM=F IPFlag=           0 FMFlag=      100000 FMFlg1=           0
         NFxFlg=           0 DoJE=F BraDBF=F KetDBF=F FulRan=T
         wScrn=  0.000000 ICntrl=      3107 IOpCl=  0 I1Cent=           0 NGrid=           0
         NMat0=    1 NMatS0=      1 NMatT0=    0 NMatD0=    1 NMtDS0=    0 NMtDT0=    0
 Petite list used in FoFCou.
 End of G2Drv F.D. properties file   721 does not exist.
 End of G2Drv F.D. properties file   722 does not exist.
 End of G2Drv F.D. properties file   788 does not exist.
 Leave Link 1110 at Sun Mar  6 19:28:43 2022, MaxMem= 16106127360 cpu:              87.3 elap:               3.2
 (Enter /sw/contrib/gaussian/g16/B01/g16/l1112.exe)
 MP22nd: MDV=   16106127360
 This link is doing NAtomX=     5 total of    18 degrees of freedom.
 Using ON3 I/O method in MakUI.
 Frozen-core window:  NFC=   4 NFV=   0.
 Using Ix for Sx.
 Use MO integrals over full window.
 Using OV2 memory method for fx*t*t/D, MaxI=    16 DoOO2=F NP=  28.
 R2 and R3 integrals will be kept in memory, NReq=   915591705.
 FoFCou: FMM=F IPFlag=           0 FMFlag=           0 FMFlg1=           0
         NFxFlg=           0 DoJE=F BraDBF=F KetDBF=F FulRan=T
         wScrn=  0.000000 ICntrl=       600 IOpCl=  0 I1Cent=           0 NGrid=           0
         NMat0=    1 NMatS0=      1 NMatT0=    0 NMatD0=    1 NMtDS0=    0 NMtDT0=    0
 Symmetry not used in FoFCou.
 DD1Dir will call FoFMem   1 times, MxPair=       272
 NAB=   136 NAA=     0 NBB=     0.
 Symmetry is being used.
 FoFJK:  IHMeth= 1 ICntrl=       0 DoSepK=F KAlg= 0 I1Cent=           0 FoldK=F
 IRaf=         0 NMat=      18 IRICut=      45 DoRegI=T DoRafI=T ISym2E= 2 IDoP0=3 IntGTp=3.
 Discarding MO integrals.
 Leave Link 1112 at Sun Mar  6 19:29:15 2022, MaxMem= 16106127360 cpu:             878.1 elap:              31.5
 (Enter /sw/contrib/gaussian/g16/B01/g16/l601.exe)
 Copying SCF densities to generalized density rwf, IOpCl= 0 IROHF=0.

 **********************************************************************

            Population analysis using the MP2 Density.

 **********************************************************************

 Orbital symmetries:
       Occupied  (A') (A') (A') (A') (A') (A') (A') (A') (A') (A')
                 (A") (A') (A") (A') (A') (A")
       Virtual   (A') (A") (A') (A') (A") (A') (A') (A') (A") (A')
                 (A") (A') (A') (A') (A") (A') (A') (A") (A') (A')
                 (A') (A') (A') (A') (A") (A') (A') (A") (A') (A')
                 (A') (A") (A") (A') (A') (A') (A") (A') (A") (A')
                 (A") (A") (A') (A') (A") (A') (A') (A") (A') (A')
                 (A') (A") (A') (A') (A") (A') (A") (A') (A') (A")
                 (A') (A') (A") (A') (A') (A") (A') (A") (A') (A')
                 (A") (A') (A") (A") (A') (A') (A") (A') (A') (A')
                 (A") (A') (A') (A") (A') (A") (A") (A') (A') (A')
                 (A') (A') (A") (A") (A') (A') (A") (A") (A') (A")
                 (A') (A') (A") (A') (A") (A') (A') (A') (A") (A")
                 (A') (A') (A') (A') (A") (A') (A') (A') (A") (A')
                 (A") (A') (A") (A') (A") (A") (A') (A") (A') (A')
                 (A') (A') (A") (A') (A') (A") (A") (A') (A') (A')
                 (A") (A") (A') (A') (A') (A") (A') (A') (A') (A")
                 (A') (A') (A') (A") (A') (A") (A") (A') (A') (A")
                 (A') (A") (A') (A") (A") (A') (A") (A') (A") (A")
                 (A') (A") (A") (A') (A') (A") (A') (A') (A") (A')
                 (A') (A') (A') (A') (A') (A') (A') (A') (A') (A')
                 (A')
 The electronic state is 1-A'.
 Alpha  occ. eigenvalues --  -20.71968 -20.68793 -20.66852 -15.82657  -1.64517
 Alpha  occ. eigenvalues --   -1.50578  -1.29385  -0.96034  -0.83567  -0.75935
 Alpha  occ. eigenvalues --   -0.74039  -0.63777  -0.61885  -0.61884  -0.50542
 Alpha  occ. eigenvalues --   -0.49763
 Alpha virt. eigenvalues --    0.03527   0.05978   0.09505   0.10033   0.11951
 Alpha virt. eigenvalues --    0.12261   0.14932   0.15261   0.17743   0.17999
 Alpha virt. eigenvalues --    0.18968   0.21088   0.21687   0.24238   0.24633
 Alpha virt. eigenvalues --    0.26873   0.31322   0.31746   0.33784   0.34396
 Alpha virt. eigenvalues --    0.34759   0.39272   0.44964   0.49040   0.50543
 Alpha virt. eigenvalues --    0.51820   0.54371   0.56075   0.59795   0.62050
 Alpha virt. eigenvalues --    0.63864   0.69058   0.71648   0.72403   0.74249
 Alpha virt. eigenvalues --    0.76444   0.76713   0.79560   0.80642   0.83849
 Alpha virt. eigenvalues --    0.84319   0.85248   0.88506   0.90813   0.92975
 Alpha virt. eigenvalues --    0.94871   0.95353   1.01906   1.03431   1.06647
 Alpha virt. eigenvalues --    1.06722   1.09631   1.14549   1.15623   1.16963
 Alpha virt. eigenvalues --    1.22197   1.22784   1.24751   1.35409   1.35758
 Alpha virt. eigenvalues --    1.37071   1.46841   1.48467   1.50336   1.54454
 Alpha virt. eigenvalues --    1.59730   1.59740   1.60432   1.62921   1.69485
 Alpha virt. eigenvalues --    1.74524   1.80069   1.82925   1.88790   1.90418
 Alpha virt. eigenvalues --    1.93168   1.97904   1.98896   2.05252   2.12484
 Alpha virt. eigenvalues --    2.13250   2.16785   2.18972   2.24288   2.26022
 Alpha virt. eigenvalues --    2.29629   2.35466   2.36759   2.38819   2.40327
 Alpha virt. eigenvalues --    2.43506   2.46949   2.48006   2.53048   2.54021
 Alpha virt. eigenvalues --    2.54853   2.55989   2.61654   2.63118   2.67247
 Alpha virt. eigenvalues --    2.67488   2.75329   2.80585   2.81455   2.84697
 Alpha virt. eigenvalues --    2.91801   2.98600   3.04772   3.05069   3.11676
 Alpha virt. eigenvalues --    3.12172   3.17705   3.21928   3.31111   3.33184
 Alpha virt. eigenvalues --    3.35895   3.48103   3.67774   3.87039   3.93845
 Alpha virt. eigenvalues --    4.18735   4.22290   4.22549   4.26862   4.36870
 Alpha virt. eigenvalues --    4.49854   4.53146   4.55539   4.60619   4.69166
 Alpha virt. eigenvalues --    4.81154   4.89815   4.91476   4.93893   4.99833
 Alpha virt. eigenvalues --    5.00512   5.10784   5.13316   5.17795   5.25246
 Alpha virt. eigenvalues --    5.25602   5.31820   5.34754   5.36716   5.54648
 Alpha virt. eigenvalues --    5.64460   5.70828   5.89346   5.99660   6.26492
 Alpha virt. eigenvalues --    6.29843   6.35802   6.37476   6.60085   6.65618
 Alpha virt. eigenvalues --    6.66249   6.69111   6.72537   6.79557   6.80661
 Alpha virt. eigenvalues --    6.85050   6.96858   7.02984   7.06632   7.07692
 Alpha virt. eigenvalues --    7.13203   7.17509   7.17867   7.20557   7.24666
 Alpha virt. eigenvalues --    7.24925   7.27243   7.35048   7.39899   7.43332
 Alpha virt. eigenvalues --    7.44171   7.46426   7.55940   7.66328   7.67345
 Alpha virt. eigenvalues --    7.79617   7.88760   7.95278   8.07516   8.31550
 Alpha virt. eigenvalues --    8.49755   8.65216  13.62124  14.77619  15.11495
 Alpha virt. eigenvalues --   15.79141
          Condensed to atoms (all electrons):
               1          2          3          4          5
     1  H    0.581783   0.122799   0.022811   0.000833  -0.003050
     2  O    0.122799   8.391567  -0.229508  -0.000967  -0.009244
     3  O    0.022811  -0.229508   8.371370  -0.169644  -0.033378
     4  N    0.000833  -0.000967  -0.169644   7.137281  -0.123018
     5  O   -0.003050  -0.009244  -0.033378  -0.123018   8.362730
 Mulliken charges:
               1
     1  H    0.274823
     2  O   -0.274648
     3  O    0.038349
     4  N    0.155515
     5  O   -0.194039
 Sum of Mulliken charges =  -0.00000
 Mulliken charges with hydrogens summed into heavy atoms:
               1
     2  O    0.000175
     3  O    0.038349
     4  N    0.155515
     5  O   -0.194039
 APT charges:
               1
     1  H    0.272417
     2  O   -0.303483
     3  O   -0.308383
     4  N    0.643167
     5  O   -0.303718
 Sum of APT charges =  -0.00000
 APT charges with hydrogens summed into heavy atoms:
               1
     2  O   -0.031066
     3  O   -0.308383
     4  N    0.643167
     5  O   -0.303718
 Electronic spatial extent (au):  <R**2>=            207.0752
 Charge=             -0.0000 electrons
 Dipole moment (field-independent basis, Debye):
    X=              0.0251    Y=             -1.0845    Z=             -0.0000  Tot=              1.0848
 Quadrupole moment (field-independent basis, Debye-Ang):
   XX=            -23.4203   YY=            -22.9464   ZZ=            -21.9292
   XY=             -1.9255   XZ=              0.0000   YZ=             -0.0000
 Traceless Quadrupole moment (field-independent basis, Debye-Ang):
   XX=             -0.6551   YY=             -0.1811   ZZ=              0.8361
   XY=             -1.9255   XZ=              0.0000   YZ=             -0.0000
 Octapole moment (field-independent basis, Debye-Ang**2):
  XXX=              2.4629  YYY=              0.2843  ZZZ=              0.0000  XYY=              2.3331
  XXY=             -2.7413  XXZ=             -0.0000  XZZ=             -0.5862  YZZ=             -0.7052
  YYZ=             -0.0000  XYZ=              0.0000
 Hexadecapole moment (field-independent basis, Debye-Ang**3):
 XXXX=           -126.9139 YYYY=            -94.8027 ZZZZ=            -18.0329 XXXY=            -21.4749
 XXXZ=              0.0000 YYYX=            -19.7978 YYYZ=             -0.0000 ZZZX=              0.0000
 ZZZY=             -0.0000 XXYY=            -35.6261 XXZZ=            -24.3041 YYZZ=            -18.5781
 XXYZ=              0.0000 YYXZ=              0.0000 ZZXY=             -5.9290
 N-N= 1.228036944096D+02 E-N=-9.071538608547D+02  KE= 2.802067293335D+02
 Symmetry A'   KE= 2.663567672998D+02
 Symmetry A"   KE= 1.384996203376D+01
  Exact polarizability:  30.908   4.187  29.836  -0.000   0.000  17.601
 Approx polarizability:  24.593   0.570  27.634  -0.000   0.000  15.504
 No NMR shielding tensors so no spin-rotation constants.
 Leave Link  601 at Sun Mar  6 19:29:15 2022, MaxMem= 16106127360 cpu:               4.5 elap:               0.2
 (Enter /sw/contrib/gaussian/g16/B01/g16/l701.exe)
 ... and contract with generalized density number  2.
 Compute integral second derivatives.
 Leave Link  701 at Sun Mar  6 19:29:15 2022, MaxMem= 16106127360 cpu:               5.7 elap:               0.2
 (Enter /sw/contrib/gaussian/g16/B01/g16/l702.exe)
 L702 exits ... SP integral derivatives will be done elsewhere.
 Leave Link  702 at Sun Mar  6 19:29:15 2022, MaxMem= 16106127360 cpu:               0.6 elap:               0.0
 (Enter /sw/contrib/gaussian/g16/B01/g16/l703.exe)
 Integral derivatives from FoFJK, PRISM(SPDF).
 Compute integral second derivatives, UseDBF=F ICtDFT=           0.
 Calling FoFJK, ICntrl=  10100127 FMM=F ISym2X=1 I1Cent= 0 IOpClX= 0 NMat=1 NMatS=1 NMatT=0.
 FoFJK:  IHMeth= 1 ICntrl=10100127 DoSepK=F KAlg= 0 I1Cent=           0 FoldK=F
 IRaf=         0 NMat=       1 IRICut=       1 DoRegI=T DoRafI=F ISym2E= 1 IDoP0=0 IntGTp=1.
 FoFCou: FMM=F IPFlag=           0 FMFlag=      100000 FMFlg1=         800
         NFxFlg=           0 DoJE=F BraDBF=F KetDBF=F FulRan=T
         wScrn=  0.000000 ICntrl=  10100127 IOpCl=  0 I1Cent=           0 NGrid=           0
         NMat0=    1 NMatS0=      1 NMatT0=    0 NMatD0=    1 NMtDS0=    0 NMtDT0=    0
 Petite list used in FoFCou.
 Leave Link  703 at Sun Mar  6 19:29:31 2022, MaxMem= 16106127360 cpu:             447.9 elap:              16.0
 (Enter /sw/contrib/gaussian/g16/B01/g16/l716.exe)
 Dipole        = 9.88772503D-03-4.26689937D-01-5.85696205D-33
 Polarizability= 3.09079080D+01 4.18740154D+00 2.98358184D+01
                -6.75458324D-31 2.31761309D-31 1.76008782D+01
 Full mass-weighted force constant matrix:
 Low frequencies ---  -56.1384  -20.4942    0.0010    0.0011    0.0011   22.1068
 Low frequencies ---  366.0138  397.6943  522.4599
 Diagonal vibrational polarizability:
        7.1570720       9.9855328      14.8892568
 Harmonic frequencies (cm**-1), IR intensities (KM/Mole), Raman scattering
 activities (A**4/AMU), depolarization ratios for plane and unpolarized
 incident light, reduced masses (AMU), force constants (mDyne/A),
 and normal coordinates:
                      1                      2                      3
                     A"                     A'                     A"
 Frequencies --    365.6470               397.6917               522.4076
 Red. masses --      1.5563                 7.1553                 2.9001
 Frc consts  --      0.1226                 0.6668                 0.4663
 IR Inten    --     61.6313                 7.8672                25.1891
  Atom  AN      X      Y      Z        X      Y      Z        X      Y      Z
     1   1    -0.00  -0.00   0.98    -0.72  -0.25  -0.00     0.00   0.00   0.93
     2   8    -0.00  -0.00  -0.11    -0.33  -0.32   0.00     0.00   0.00   0.05
     3   8    -0.00   0.00   0.12    -0.07   0.08  -0.00    -0.00  -0.00  -0.18
     4   7    -0.00  -0.00  -0.11     0.06   0.09   0.00     0.00   0.00   0.27
     5   8     0.00   0.00   0.03     0.39   0.17  -0.00    -0.00   0.00  -0.17
                      4                      5                      6
                     A'                     A'                     A'
 Frequencies --    712.4118               839.0468               972.6561
 Red. masses --     13.3908                12.8429                 9.7808
 Frc consts  --      4.0042                 5.3270                 5.4518
 IR Inten    --    216.2860                31.3138                12.7204
  Atom  AN      X      Y      Z        X      Y      Z        X      Y      Z
     1   1    -0.35   0.01  -0.00     0.40  -0.15   0.00    -0.63   0.01   0.00
     2   8    -0.01  -0.08   0.00     0.54  -0.21  -0.00     0.19  -0.17   0.00
     3   8     0.37   0.58  -0.00    -0.39  -0.02   0.00    -0.36   0.41  -0.00
     4   7    -0.41  -0.46   0.00    -0.44  -0.06  -0.00     0.38   0.04   0.00
     5   8     0.02  -0.10  -0.00     0.21   0.29   0.00    -0.13  -0.28  -0.00
                      7                      8                      9
                     A'                     A'                     A'
 Frequencies --   1445.7865              1573.8364              3481.0358
 Red. masses --      1.3384                 5.5396                 1.0636
 Frc consts  --      1.6483                 8.0843                 7.5938
 IR Inten    --     81.0638               150.4659                44.3182
  Atom  AN      X      Y      Z        X      Y      Z        X      Y      Z
     1   1     0.96  -0.21  -0.00    -0.80   0.19   0.00     0.17   0.98   0.00
     2   8    -0.06  -0.05  -0.00     0.02   0.02   0.00    -0.01  -0.06  -0.00
     3   8    -0.03   0.06   0.00    -0.03  -0.06  -0.00     0.00  -0.00   0.00
     4   7     0.07  -0.06  -0.00     0.22  -0.37   0.00    -0.00   0.00   0.00
     5   8    -0.03   0.06   0.00    -0.14   0.34  -0.00     0.00  -0.00  -0.00

 -------------------
 - Thermochemistry -
 -------------------
 Temperature   298.150 Kelvin.  Pressure   1.00000 Atm.
 Atom     1 has atomic number  1 and mass   1.00783
 Atom     2 has atomic number  8 and mass  15.99491
 Atom     3 has atomic number  8 and mass  15.99491
 Atom     4 has atomic number  7 and mass  14.00307
 Atom     5 has atomic number  8 and mass  15.99491
 Molecular mass:    62.99564 amu.
 Principal axes and moments of inertia in atomic units:
                           1         2         3
     Eigenvalues --    84.40802 222.56281 306.97084
           X            0.79560  -0.60583   0.00000
           Y            0.60583   0.79560   0.00000
           Z            0.00000  -0.00000   1.00000
 This molecule is an asymmetric top.
 Rotational symmetry number  1.
 Rotational temperatures (Kelvin)      1.02613     0.38917     0.28216
 Rotational constants (GHZ):          21.38116     8.10891     5.87919
 Zero-point vibrational energy      61670.6 (Joules/Mol)
                                   14.73963 (Kcal/Mol)
 Warning -- explicit consideration of   3 degrees of freedom as
           vibrations may cause significant error
 Vibrational temperatures:    526.08   572.19   751.63  1025.00  1207.20
          (Kelvin)           1399.44  2080.16  2264.40  5008.43
 
 Zero-point correction=                           0.023489 (Hartree/Particle)
 Thermal correction to Energy=                    0.027412
 Thermal correction to Enthalpy=                  0.028356
 Thermal correction to Gibbs Free Energy=        -0.002472
 Sum of electronic and zero-point Energies=           -280.431706
 Sum of electronic and thermal Energies=              -280.427783
 Sum of electronic and thermal Enthalpies=            -280.426839
 Sum of electronic and thermal Free Energies=         -280.457667
 
                     E (Thermal)             CV                S
                      KCal/Mol        Cal/Mol-Kelvin    Cal/Mol-Kelvin
 Total                   17.201             12.131             64.882
 Electronic               0.000              0.000              0.000
 Translational            0.889              2.981             38.341
 Rotational               0.889              2.981             23.271
 Vibrational             15.424              6.169              3.271
 Vibration     1          0.739              1.543              1.098
 Vibration     2          0.764              1.475              0.971
 Vibration     3          0.877              1.200              0.604
                       Q            Log10(Q)             Ln(Q)
 Total Bot       0.137040D+02          1.136848          2.617689
 Total V=0       0.873114D+12         11.941071         27.495332
 Vib (Bot)       0.256517D-10        -10.590884        -24.386412
 Vib (Bot)    1  0.499382D+00         -0.301567         -0.694383
 Vib (Bot)    2  0.448933D+00         -0.347819         -0.800883
 Vib (Bot)    3  0.308297D+00         -0.511030         -1.176690
 Vib (V=0)       0.163433D+01          0.213339          0.491231
 Vib (V=0)    1  0.120667D+01          0.081589          0.187865
 Vib (V=0)    2  0.117197D+01          0.068916          0.158684
 Vib (V=0)    3  0.108741D+01          0.036392          0.083796
 Electronic      0.100000D+01          0.000000          0.000000
 Translational   0.196526D+08          7.293420         16.793719
 Rotational      0.271839D+05          4.434312         10.210381
 
                                                                title
                                                             IR Spectrum
 
     3                                                                     1    1                                                    
     4                                                                     5    4                9    8    7     5    33             
     8                                                                     7    4                7    3    1     2    96             
     1                                                                     4    6                3    9    2     2    86             
 
     X                                                                     X    X                X    X    X     X    XX             
     X                                                                     X    X                     X    X     X     X             
     X                                                                     X    X                     X    X           X             
     X                                                                     X    X                          X           X             
                                                                           X    X                          X           X             
                                                                           X    X                          X           X             
                                                                           X    X                          X                         
                                                                           X                               X                         
                                                                           X                               X                         
                                                                           X                               X                         
                                                                           X                               X                         
                                                                           X                               X                         
                                                                           X                               X                         
                                                                           X                               X                         
                                                                                                           X                         
                                                                                                           X                         
                                                                                                           X                         
                                                                                                           X                         
                                                                                                           X                         
                                                                                                           X                         
 
 ***** Axes restored to original set *****
 -------------------------------------------------------------------
 Center     Atomic                   Forces (Hartrees/Bohr)
 Number     Number              X              Y              Z
 -------------------------------------------------------------------
      1        1          -0.002584311   -0.000000000   -0.000898705
      2        8           0.001636597    0.000000000   -0.001024056
      3        8           0.001096104    0.000000000    0.001187510
      4        7           0.000450986    0.000000000    0.001181299
      5        8          -0.000599374   -0.000000000   -0.000446049
 -------------------------------------------------------------------
 Cartesian Forces:  Max     0.002584311 RMS     0.001032220
 -----------------------------------------------------------------------------------------------
                       Internal Coordinate Forces (Hartree/Bohr or radian)
  Cent   Atom   N1       Length/X         N2         Alpha/Y        N3         Beta/Z          J
 -----------------------------------------------------------------------------------------------
      1  H 
      2  O        1   0.000899(     1)
      3  O        2   0.001253(     2)      1   0.004812(     5)
      4  N        3  -0.000699(     3)      2   0.000123(     6)      1  -0.000000(     8)     0
      5  O        4   0.000700(     4)      3  -0.000587(     7)      2  -0.000000(     9)     0
 -----------------------------------------------------------------------------------------------
 Internal  Forces:  Max     0.004812047 RMS     0.001727977
 Force constants in Cartesian coordinates: 
                1             2             3             4             5 
      1  0.742439D-01
      2  0.000000D+00  0.616599D-02
      3  0.262722D-01  0.000000D+00  0.434743D+00
      4 -0.503066D-01  0.000000D+00 -0.505213D-02  0.279006D+00
      5  0.000000D+00 -0.333492D-02  0.000000D+00  0.000000D+00  0.138793D-01
      6  0.310420D-01  0.000000D+00 -0.418773D+00 -0.133498D-01  0.000000D+00
      7 -0.276673D-01  0.000000D+00 -0.170482D-01 -0.172108D+00  0.000000D+00
      8  0.000000D+00 -0.327370D-02  0.000000D+00  0.000000D+00 -0.199645D-01
      9 -0.441733D-01  0.000000D+00 -0.211486D-01  0.112098D-01  0.000000D+00
     10 -0.721338D-02  0.000000D+00  0.715228D-02 -0.830212D-01  0.000000D+00
     11  0.000000D+00  0.816128D-02  0.000000D+00  0.000000D+00  0.200970D-01
     12 -0.195336D-01  0.000000D+00  0.132754D-01  0.117752D-01  0.000000D+00
     13  0.109434D-01  0.000000D+00 -0.113241D-01  0.264304D-01  0.000000D+00
     14  0.000000D+00 -0.771865D-02  0.000000D+00  0.000000D+00 -0.106770D-01
     15  0.639264D-02  0.000000D+00 -0.809650D-02 -0.458313D-02  0.000000D+00
                6             7             8             9            10 
      6  0.520919D+00
      7 -0.905957D-01  0.308345D+00
      8  0.000000D+00  0.000000D+00  0.413734D-01
      9 -0.939460D-01  0.833993D-01  0.000000D+00  0.314881D+00
     10  0.410307D-01 -0.143937D+00  0.000000D+00 -0.334594D-01  0.564666D+00
     11  0.000000D+00  0.000000D+00 -0.485011D-01  0.000000D+00  0.000000D+00
     12 -0.120369D-01  0.186657D-01  0.000000D+00 -0.254016D-01  0.241772D+00
     13  0.318727D-01  0.353673D-01  0.000000D+00 -0.169764D-01 -0.330495D+00
     14  0.000000D+00  0.000000D+00  0.303658D-01  0.000000D+00  0.000000D+00
     15  0.383687D-02  0.557900D-02  0.000000D+00 -0.174385D+00 -0.256496D+00
               11            12            13            14            15 
     11  0.577928D-01
     12  0.000000D+00  0.439975D+00
     13  0.000000D+00 -0.252680D+00  0.257753D+00
     14 -0.375500D-01  0.000000D+00  0.000000D+00  0.255798D-01
     15  0.000000D+00 -0.415812D+00  0.249107D+00  0.000000D+00  0.594456D+00
 Force constants in internal coordinates: 
                1             2             3             4             5 
      1  0.434743D+00
      2  0.235738D-01  0.261662D+00
      3  0.661166D-02  0.166356D-01  0.207374D+00
      4 -0.129566D-01  0.228252D-01  0.149219D+00  0.722176D+00
      5  0.463368D-01  0.616488D-01 -0.243460D-01  0.210789D-01  0.259105D+00
      6  0.133602D-01  0.235322D-01  0.916067D-01  0.106060D-01 -0.473525D-02
      7  0.114938D-01 -0.749273D-01  0.121050D+00  0.118419D+00 -0.239605D-01
      8  0.000000D+00  0.000000D+00  0.000000D+00  0.000000D+00  0.000000D+00
      9  0.000000D+00  0.000000D+00  0.000000D+00  0.000000D+00  0.000000D+00
                6             7             8             9 
      6  0.527796D+00
      7  0.627926D-01  0.664464D+00
      8  0.000000D+00  0.000000D+00  0.216331D-01
      9  0.000000D+00  0.000000D+00  0.291595D-01  0.109793D+00
 Leave Link  716 at Sun Mar  6 19:29:31 2022, MaxMem= 16106127360 cpu:               0.8 elap:               0.1
 (Enter /sw/contrib/gaussian/g16/B01/g16/l103.exe)

 GradGradGradGradGradGradGradGradGradGradGradGradGradGradGradGradGradGrad
 Berny optimization.
 Search for a local minimum.
 Step number   1 out of a maximum of    2
 All quantities printed in internal units (Hartrees-Bohrs-Radians)
 Second derivative matrix not updated -- analytic derivatives used.
 The second derivative matrix:
                          r1        r2        r3        r4        a1
           r1           0.43474
           r2           0.02357   0.26166
           r3           0.00661   0.01664   0.20737
           r4          -0.01296   0.02283   0.14922   0.72218
           a1           0.04634   0.06165  -0.02435   0.02108   0.25911
           a2           0.01336   0.02353   0.09161   0.01061  -0.00474
           a3           0.01149  -0.07493   0.12105   0.11842  -0.02396
           d1           0.00000   0.00000   0.00000  -0.00000  -0.00000
           d2           0.00000  -0.00000  -0.00000  -0.00000  -0.00000
                          a2        a3        d1        d2
           a2           0.52780
           a3           0.06279   0.66446
           d1           0.00000  -0.00000   0.02163
           d2          -0.00000   0.00000   0.02916   0.10979
 ITU=  0
     Eigenvalues ---    0.01286   0.11856   0.12477   0.20422   0.28201
     Eigenvalues ---    0.44893   0.52218   0.60903   0.88618
 Angle between quadratic step and forces=  18.03 degrees.
 Linear search not attempted -- first point.
 Variable       Old X    -DE/DX   Delta X   Delta X   Delta X     New X
                                 (Linear)    (Quad)   (Total)
    r1        1.86209   0.00090   0.00000   0.00014   0.00014   1.86223
    r2        2.69614   0.00125   0.00000   0.00050   0.00050   2.69664
    r3        2.60992  -0.00070   0.00000  -0.00225  -0.00225   2.60767
    r4        2.25782   0.00070   0.00000   0.00088   0.00088   2.25870
    a1        1.73734   0.00481   0.00000   0.01816   0.01816   1.75550
    a2        1.97463   0.00012   0.00000   0.00074   0.00074   1.97537
    a3        1.99550  -0.00059   0.00000   0.00001   0.00001   1.99551
    d1        0.00000  -0.00000   0.00000   0.00000   0.00000   0.00000
    d2        0.00000  -0.00000   0.00000   0.00000   0.00000   0.00000
         Item               Value     Threshold  Converged?
 Maximum Force            0.004812     0.000450     NO 
 RMS     Force            0.001728     0.000300     NO 
 Maximum Displacement     0.018159     0.001800     NO 
 RMS     Displacement     0.006114     0.001200     NO 
 Predicted change in Energy=-4.520513D-05
                       ----------------------------
                       ! Non-Optimized Parameters !
                       ! (Angstroms and Degrees)  !
 ----------------------                            ----------------------
 !      Name          Value   Derivative information (Atomic Units)     !
 ------------------------------------------------------------------------
 !       r1          0.9855   -DE/DX =    0.0009                        !
 !       r2          1.427    -DE/DX =    0.0013                        !
 !       r3          1.3799   -DE/DX =   -0.0007                        !
 !       r4          1.1953   -DE/DX =    0.0007                        !
 !       a1        100.5825   -DE/DX =    0.0048                        !
 !       a2        113.1803   -DE/DX =    0.0001                        !
 !       a3        114.3344   -DE/DX =   -0.0006                        !
 !       d1          0.0      -DE/DX =    0.0                           !
 !       d2          0.0      -DE/DX =    0.0                           !
 ------------------------------------------------------------------------
 GradGradGradGradGradGradGradGradGradGradGradGradGradGradGradGradGradGrad

 Leave Link  103 at Sun Mar  6 19:29:31 2022, MaxMem= 16106127360 cpu:               1.6 elap:               0.1
 (Enter /sw/contrib/gaussian/g16/B01/g16/l9999.exe)

 ----------------------------------------------------------------------

 Electric dipole moment (input orientation):
 (Debye = 10**-18 statcoulomb cm , SI units = C m)
                  (au)            (Debye)         (10**-30 SI)
   Tot        0.426804D+00      0.108483D+01      0.361860D+01
   x         -0.106792D+00     -0.271437D+00     -0.905417D+00
   y          0.000000D+00      0.000000D+00      0.000000D+00
   z         -0.413228D+00     -0.105032D+01     -0.350350D+01

 Dipole polarizability, Alpha (input orientation).
 (esu units = cm**3 , SI units = C**2 m**2 J**-1)
 Alpha(0;0):
               (au)            (10**-24 esu)      (10**-40 SI)
   iso        0.261149D+02      0.386982D+01      0.430576D+01
   aniso      0.147161D+02      0.218070D+01      0.242635D+01
   xx         0.289954D+02      0.429667D+01      0.478069D+01
   yx         0.000000D+00      0.000000D+00      0.000000D+00
   yy         0.176009D+02      0.260818D+01      0.290199D+01
   zx        -0.399085D+01     -0.591383D+00     -0.658002D+00
   zy         0.000000D+00      0.000000D+00      0.000000D+00
   zz         0.317484D+02      0.470462D+01      0.523460D+01

 ----------------------------------------------------------------------

 Dipole orientation:
     1          0.00000000          0.00000000         -0.00000000
     8         -0.46591779          0.00000000         -1.80286083
     8          1.99651437          0.00000000         -2.90086222
     7          3.91055583         -0.00000000         -1.12657290
     8          3.19428156         -0.00000000          1.01462203

 Electric dipole moment (dipole orientation):
 (Debye = 10**-18 statcoulomb cm , SI units = C m)
                  (au)            (Debye)         (10**-30 SI)
   Tot        0.426804D+00      0.108483D+01      0.361860D+01
   x          0.000000D+00      0.000000D+00      0.000000D+00
   y          0.000000D+00      0.000000D+00      0.000000D+00
   z          0.426804D+00      0.108483D+01      0.361860D+01

 Dipole polarizability, Alpha (dipole orientation).
 (esu units = cm**3 , SI units = C**2 m**2 J**-1)
 Alpha(0;0):
               (au)            (10**-24 esu)      (10**-40 SI)
   iso        0.261149D+02      0.386982D+01      0.430576D+01
   aniso      0.147161D+02      0.218070D+01      0.242635D+01
   xx         0.311013D+02      0.460874D+01      0.512791D+01
   yx         0.000000D+00      0.000000D+00      0.000000D+00
   yy         0.176009D+02      0.260818D+01      0.290199D+01
   zx         0.415808D+01      0.616163D+00      0.685574D+00
   zy         0.000000D+00      0.000000D+00      0.000000D+00
   zz         0.296424D+02      0.439255D+01      0.488738D+01

 ----------------------------------------------------------------------
 1\1\GINC-N2174\Freq\RMP2-FC\Aug-CC-pVTZ\H1N1O3\CGAVINH\06-Mar-2022\1\\
 #p freq mp2/aug-cc-pvtz density=current\\title\\0,1\H\O,1,r1\O,2,r2,1,
 a1\N,3,r3,2,a2,1,d1,0\O,4,r4,3,a3,2,d2,0\\r1=0.98537664\r2=1.42673666\
 r3=1.38110764\r4=1.19478846\a1=99.54208995\a2=113.13777052\a3=114.3339
 2022\d1=0.\d2=0.\\Version=ES64L-G16RevB.01\State=1-A'\HF=-279.5061484\
 MP2=-280.455195\RMSD=4.465e-09\RMSF=1.032e-03\ZeroPoint=0.0234891\Ther
 mal=0.0274119\Dipole=-0.1067916,0.,-0.4132283\DipoleDeriv=0.3191689,0.
 ,0.0335853,0.,0.2955047,0.,-0.03385,0.,0.2025788,-0.5266685,0.,0.29182
 36,0.,-0.2517798,0.,-0.090376,0.,-0.1320014,0.0212558,0.,0.3147008,0.,
 -0.0112178,0.,0.4203052,0.,-0.9351885,0.183929,0.,-0.1084134,0.,0.0124
 595,0.,-0.6336282,0.,1.7331122,0.0023148,0.,-0.5316962,0.,-0.0449666,0
 .,0.337549,0.,-0.8685011\Polar=28.9953511,0.,17.6008782,-3.9908508,0.,
 31.7483753\Quadrupole=0.166103,0.621641,-0.787744,0.,1.3612314,0.\PG=C
 S [SG(H1N1O3)]\NImag=0\\0.07424387,0.,0.00616599,0.02627222,0.,0.43474
 299,-0.05030657,0.,-0.00505213,0.27900577,0.,-0.00333492,0.,0.,0.01387
 932,0.03104202,0.,-0.41877330,-0.01334976,0.,0.52091934,-0.02766733,0.
 ,-0.01704825,-0.17210840,0.,-0.09059572,0.30834499,0.,-0.00327370,0.,0
 .,-0.01996447,0.,0.,0.04137338,-0.04417333,0.,-0.02114860,0.01120979,0
 .,-0.09394597,0.08339929,0.,0.31488126,-0.00721338,0.,0.00715228,-0.08
 302117,0.,0.04103071,-0.14393652,0.,-0.03345936,0.56466560,0.,0.008161
 28,0.,0.,0.02009703,0.,0.,-0.04850107,0.,0.,0.05779280,-0.01953355,0.,
 0.01327542,0.01177524,0.,-0.01203695,0.01866568,0.,-0.02540159,0.24177
 229,0.,0.43997469,0.01094341,0.,-0.01132413,0.02643037,0.,0.03187275,0
 .03536726,0.,-0.01697639,-0.33049454,0.,-0.25267965,0.25775349,0.,-0.0
 0771865,0.,0.,-0.01067696,0.,0.,0.03036585,0.,0.,-0.03755005,0.,0.,0.0
 2557981,0.00639264,0.,-0.00809650,-0.00458313,0.,0.00383687,0.00557900
 ,0.,-0.17438510,-0.25649592,0.,-0.41581158,0.24910742,0.,0.59445630\\0
 .00258431,0.,0.00089870,-0.00163660,0.,0.00102406,-0.00109610,0.,-0.00
 118751,-0.00045099,0.,-0.00118130,0.00059937,0.,0.00044605\\\@


     ON THE SURVIVAL OF THE FITTEST -
 "STRONG REPRESENTATIVES FROM EACH PAST ERA THRIVE TODAY,
 SUCH AS PROGRAMMING IN THE THIRTY YEAR OLD LANGUAGE KNOWN
 AS FORTRAN, AND EVEN IN THE ANCIENT SCRIPT KNOWN AS DIRECT
 MACHINE CODE. SOME PEOPLE MIGHT LOOK ON SUCH RELICS AS LIVING
 FOSSILS; OTHERS WOULD POINT OUT THAT EVEN A VERY OLD SPECIES
 MIGHT STILL BE FILLING A PARTICULAR ECOLOGICAL NICHE."
     -- ALAN KAY, SCI.AM. SEPTEMBER 1984
 Job cpu time:       0 days  1 hours 59 minutes  0.5 seconds.
 Elapsed time:       0 days  0 hours  4 minutes 18.0 seconds.
 File lengths (MBytes):  RWF=   7239 Int=      0 D2E=      0 Chk=      8 Scr=      1
 Normal termination of Gaussian 16 at Sun Mar  6 19:29:32 2022.
