title                                                                   
Freq      RMP2-FC                                                     Aug-CC-pVTZ         
Number of atoms                            I                5
Info1-9                                    I   N=           9
          33          24           0           0           0         100
           6           2           1
Full Title                                 C   N=           1
title       
Route                                      C   N=           4
#p freq mp2/aug-cc-pvtz density=current         
Charge                                     I                0
Multiplicity                               I                1
Number of electrons                        I               32
Number of alpha electrons                  I               16
Number of beta electrons                   I               16
Number of basis functions                  I              207
Number of independent functions            I              207
Number of point charges in /Mol/           I                0
Number of translation vectors              I                0
Atomic numbers                             I   N=           5
           1           8           8           7           8
Nuclear charges                            R   N=           5
  1.00000000E+00  8.00000000E+00  8.00000000E+00  7.00000000E+00  8.00000000E+00
Current cartesian coordinates              R   N=          15
  2.11386636E+00 -1.11312805E+00  0.00000000E+00  2.49300255E+00  7.09957871E-01
  0.00000000E+00 -3.58571795E-17  1.73666011E+00  0.00000000E+00 -1.86220250E+00
 -9.19620859E-02  0.00000000E+00 -1.12780866E+00 -2.22701015E+00  0.00000000E+00
Number of symbols in /Mol/                 I                0
Force Field                                I                0
Atom Types                                 C   N=           5
                                                            
Int Atom Types                             I   N=           5
           0           0           0           0           0
MM charges                                 R   N=           5
  0.00000000E+00  0.00000000E+00  0.00000000E+00  0.00000000E+00  0.00000000E+00
Integer atomic weights                     I   N=           5
           1          16          16          14          16
Real atomic weights                        R   N=           5
  1.00782504E+00  1.59949146E+01  1.59949146E+01  1.40030740E+01  1.59949146E+01
Atom fragment info                         I   N=           5
           0           0           0           0           0
Atom residue num                           I   N=           5
           0           0           0           0           0
Nuclear spins                              I   N=           5
           1           0           0           2           0
Nuclear ZEff                               R   N=           5
 -1.00000000E+00 -5.60000000E+00 -5.60000000E+00 -4.55000000E+00 -5.60000000E+00
Nuclear ZNuc                               R   N=           5
  1.00000000E+00  8.00000000E+00  8.00000000E+00  7.00000000E+00  8.00000000E+00
Nuclear QMom                               R   N=           5
  0.00000000E+00  0.00000000E+00  0.00000000E+00  2.04400000E+00  0.00000000E+00
Nuclear GFac                               R   N=           5
  2.79284600E+00  0.00000000E+00  0.00000000E+00  4.03761000E-01  0.00000000E+00
MicOpt                                     I   N=           5
          -1          -1          -1          -1          -1
Number of residues                         I                0
Number of secondary structures             I                0
SymInf integers                            I   N=          26
           1           2           1           1           1           1
           1          -1           0           0           0           0
           0           0           0           0           0           0
           0           0           0           0           0           0
           0           0
RotTr to input orientation                 R   N=          12
 -9.79052563E-01  0.00000000E+00  2.03607658E-01  2.03607658E-01  0.00000000E+00
  9.79052563E-01  0.00000000E+00  1.00000000E+00  0.00000000E+00  2.29622768E+00
  0.00000000E+00  6.59411495E-01
Number of contracted shells                I               65
Number of primitive shells                 I              119
Pure/Cartesian d shells                    I                0
Pure/Cartesian f shells                    I                0
Highest angular momentum                   I                3
Largest degree of contraction              I                7
Shell types                                I   N=          65
           0           0           0           0           1           1
           1          -2          -2           0           0           0
           0           0           1           1           1           1
          -2          -2          -2          -3          -3           0
           0           0           0           0           1           1
           1           1          -2          -2          -2          -3
          -3           0           0           0           0           0
           1           1           1           1          -2          -2
          -2          -3          -3           0           0           0
           0           0           1           1           1           1
          -2          -2          -2          -3          -3
Number of primitives per shell             I   N=          65
           3           1           1           1           1           1
           1           1           1           7           6           1
           1           1           3           1           1           1
           1           1           1           1           1           7
           6           1           1           1           3           1
           1           1           1           1           1           1
           1           7           6           1           1           1
           3           1           1           1           1           1
           1           1           1           7           6           1
           1           1           3           1           1           1
           1           1           1           1           1
Shell to atom map                          I   N=          65
           1           1           1           1           1           1
           1           1           1           2           2           2
           2           2           2           2           2           2
           2           2           2           2           2           3
           3           3           3           3           3           3
           3           3           3           3           3           3
           3           4           4           4           4           4
           4           4           4           4           4           4
           4           4           4           5           5           5
           5           5           5           5           5           5
           5           5           5           5           5
Primitive exponents                        R   N=         119
  3.38700000E+01  5.09500000E+00  1.15900000E+00  3.25800000E-01  1.02700000E-01
  2.52600000E-02  1.40700000E+00  3.88000000E-01  1.02000000E-01  1.05700000E+00
  2.47000000E-01  1.53300000E+04  2.29900000E+03  5.22400000E+02  1.47300000E+02
  4.75500000E+01  1.67600000E+01  6.20700000E+00  5.22400000E+02  1.47300000E+02
  4.75500000E+01  1.67600000E+01  6.20700000E+00  6.88200000E-01  1.75200000E+00
  2.38400000E-01  7.37600000E-02  3.44600000E+01  7.74900000E+00  2.28000000E+00
  7.15600000E-01  2.14000000E-01  5.97400000E-02  2.31400000E+00  6.45000000E-01
  2.14000000E-01  1.42800000E+00  5.00000000E-01  1.53300000E+04  2.29900000E+03
  5.22400000E+02  1.47300000E+02  4.75500000E+01  1.67600000E+01  6.20700000E+00
  5.22400000E+02  1.47300000E+02  4.75500000E+01  1.67600000E+01  6.20700000E+00
  6.88200000E-01  1.75200000E+00  2.38400000E-01  7.37600000E-02  3.44600000E+01
  7.74900000E+00  2.28000000E+00  7.15600000E-01  2.14000000E-01  5.97400000E-02
  2.31400000E+00  6.45000000E-01  2.14000000E-01  1.42800000E+00  5.00000000E-01
  1.14200000E+04  1.71200000E+03  3.89300000E+02  1.10000000E+02  3.55700000E+01
  1.25400000E+01  4.64400000E+00  3.89300000E+02  1.10000000E+02  3.55700000E+01
  1.25400000E+01  4.64400000E+00  5.11800000E-01  1.29300000E+00  1.78700000E-01
  5.76000000E-02  2.66300000E+01  5.94800000E+00  1.74200000E+00  5.55000000E-01
  1.72500000E-01  4.91000000E-02  1.65400000E+00  4.69000000E-01  1.51000000E-01
  1.09300000E+00  3.64000000E-01  1.53300000E+04  2.29900000E+03  5.22400000E+02
  1.47300000E+02  4.75500000E+01  1.67600000E+01  6.20700000E+00  5.22400000E+02
  1.47300000E+02  4.75500000E+01  1.67600000E+01  6.20700000E+00  6.88200000E-01
  1.75200000E+00  2.38400000E-01  7.37600000E-02  3.44600000E+01  7.74900000E+00
  2.28000000E+00  7.15600000E-01  2.14000000E-01  5.97400000E-02  2.31400000E+00
  6.45000000E-01  2.14000000E-01  1.42800000E+00  5.00000000E-01
Contraction coefficients                   R   N=         119
  2.54948632E-02  1.90362766E-01  8.52162022E-01  1.00000000E+00  1.00000000E+00
  1.00000000E+00  1.00000000E+00  1.00000000E+00  1.00000000E+00  1.00000000E+00
  1.00000000E+00  5.19808943E-04  4.02025621E-03  2.07128267E-02  8.10105536E-02
  2.35962985E-01  4.42653446E-01  3.57064423E-01 -4.42115008E-05 -1.22591041E-03
 -1.05517725E-02 -6.74452633E-02 -1.71198607E-01  1.07329856E+00  1.00000000E+00
  1.00000000E+00  1.00000000E+00  4.11634896E-02  2.57762836E-01  8.02419274E-01
  1.00000000E+00  1.00000000E+00  1.00000000E+00  1.00000000E+00  1.00000000E+00
  1.00000000E+00  1.00000000E+00  1.00000000E+00  5.19808943E-04  4.02025621E-03
  2.07128267E-02  8.10105536E-02  2.35962985E-01  4.42653446E-01  3.57064423E-01
 -4.42115008E-05 -1.22591041E-03 -1.05517725E-02 -6.74452633E-02 -1.71198607E-01
  1.07329856E+00  1.00000000E+00  1.00000000E+00  1.00000000E+00  4.11634896E-02
  2.57762836E-01  8.02419274E-01  1.00000000E+00  1.00000000E+00  1.00000000E+00
  1.00000000E+00  1.00000000E+00  1.00000000E+00  1.00000000E+00  1.00000000E+00
  5.34563860E-04  4.13435660E-03  2.12335358E-02  8.25006224E-02  2.38138871E-01
  4.42551547E-01  3.53757422E-01 -4.89867350E-05 -1.19527323E-03 -1.03490714E-02
 -6.48680190E-02 -1.71552477E-01  1.07289568E+00  1.00000000E+00  1.00000000E+00
  1.00000000E+00  3.98072123E-02  2.49002660E-01  8.10479727E-01  1.00000000E+00
  1.00000000E+00  1.00000000E+00  1.00000000E+00  1.00000000E+00  1.00000000E+00
  1.00000000E+00  1.00000000E+00  5.19808943E-04  4.02025621E-03  2.07128267E-02
  8.10105536E-02  2.35962985E-01  4.42653446E-01  3.57064423E-01 -4.42115008E-05
 -1.22591041E-03 -1.05517725E-02 -6.74452633E-02 -1.71198607E-01  1.07329856E+00
  1.00000000E+00  1.00000000E+00  1.00000000E+00  4.11634896E-02  2.57762836E-01
  8.02419274E-01  1.00000000E+00  1.00000000E+00  1.00000000E+00  1.00000000E+00
  1.00000000E+00  1.00000000E+00  1.00000000E+00  1.00000000E+00
Coordinates of each shell                  R   N=         195
  2.11386636E+00 -1.11312805E+00  0.00000000E+00  2.11386636E+00 -1.11312805E+00
  0.00000000E+00  2.11386636E+00 -1.11312805E+00  0.00000000E+00  2.11386636E+00
 -1.11312805E+00  0.00000000E+00  2.11386636E+00 -1.11312805E+00  0.00000000E+00
  2.11386636E+00 -1.11312805E+00  0.00000000E+00  2.11386636E+00 -1.11312805E+00
  0.00000000E+00  2.11386636E+00 -1.11312805E+00  0.00000000E+00  2.11386636E+00
 -1.11312805E+00  0.00000000E+00  2.49300255E+00  7.09957871E-01  0.00000000E+00
  2.49300255E+00  7.09957871E-01  0.00000000E+00  2.49300255E+00  7.09957871E-01
  0.00000000E+00  2.49300255E+00  7.09957871E-01  0.00000000E+00  2.49300255E+00
  7.09957871E-01  0.00000000E+00  2.49300255E+00  7.09957871E-01  0.00000000E+00
  2.49300255E+00  7.09957871E-01  0.00000000E+00  2.49300255E+00  7.09957871E-01
  0.00000000E+00  2.49300255E+00  7.09957871E-01  0.00000000E+00  2.49300255E+00
  7.09957871E-01  0.00000000E+00  2.49300255E+00  7.09957871E-01  0.00000000E+00
  2.49300255E+00  7.09957871E-01  0.00000000E+00  2.49300255E+00  7.09957871E-01
  0.00000000E+00  2.49300255E+00  7.09957871E-01  0.00000000E+00  2.08440452E-19
  1.73666011E+00  0.00000000E+00  2.08440452E-19  1.73666011E+00  0.00000000E+00
  2.08440452E-19  1.73666011E+00  0.00000000E+00  2.08440452E-19  1.73666011E+00
  0.00000000E+00  2.08440452E-19  1.73666011E+00  0.00000000E+00  2.08440452E-19
  1.73666011E+00  0.00000000E+00  2.08440452E-19  1.73666011E+00  0.00000000E+00
  2.08440452E-19  1.73666011E+00  0.00000000E+00  2.08440452E-19  1.73666011E+00
  0.00000000E+00  2.08440452E-19  1.73666011E+00  0.00000000E+00  2.08440452E-19
  1.73666011E+00  0.00000000E+00  2.08440452E-19  1.73666011E+00  0.00000000E+00
  2.08440452E-19  1.73666011E+00  0.00000000E+00  2.08440452E-19  1.73666011E+00
  0.00000000E+00 -1.86220250E+00 -9.19620859E-02  0.00000000E+00 -1.86220250E+00
 -9.19620859E-02  0.00000000E+00 -1.86220250E+00 -9.19620859E-02  0.00000000E+00
 -1.86220250E+00 -9.19620859E-02  0.00000000E+00 -1.86220250E+00 -9.19620859E-02
  0.00000000E+00 -1.86220250E+00 -9.19620859E-02  0.00000000E+00 -1.86220250E+00
 -9.19620859E-02  0.00000000E+00 -1.86220250E+00 -9.19620859E-02  0.00000000E+00
 -1.86220250E+00 -9.19620859E-02  0.00000000E+00 -1.86220250E+00 -9.19620859E-02
  0.00000000E+00 -1.86220250E+00 -9.19620859E-02  0.00000000E+00 -1.86220250E+00
 -9.19620859E-02  0.00000000E+00 -1.86220250E+00 -9.19620859E-02  0.00000000E+00
 -1.86220250E+00 -9.19620859E-02  0.00000000E+00 -1.12780866E+00 -2.22701015E+00
  0.00000000E+00 -1.12780866E+00 -2.22701015E+00  0.00000000E+00 -1.12780866E+00
 -2.22701015E+00  0.00000000E+00 -1.12780866E+00 -2.22701015E+00  0.00000000E+00
 -1.12780866E+00 -2.22701015E+00  0.00000000E+00 -1.12780866E+00 -2.22701015E+00
  0.00000000E+00 -1.12780866E+00 -2.22701015E+00  0.00000000E+00 -1.12780866E+00
 -2.22701015E+00  0.00000000E+00 -1.12780866E+00 -2.22701015E+00  0.00000000E+00
 -1.12780866E+00 -2.22701015E+00  0.00000000E+00 -1.12780866E+00 -2.22701015E+00
  0.00000000E+00 -1.12780866E+00 -2.22701015E+00  0.00000000E+00 -1.12780866E+00
 -2.22701015E+00  0.00000000E+00 -1.12780866E+00 -2.22701015E+00  0.00000000E+00
Num ILSW                                   I              100
ILSW                                       I   N=         100
           0           0           0           0           2           0
           0           0           0           0           0          -1
           5           0           0           0           2           0
           0           0           0           0           1           0
           1           0           0           0           0           0
           0           0      100000           0          -1           0
           0           0           0           0           0           0
           0           0           0           1           1           0
           0 -2000000000           1           0           0           0
           0           0           4          52           0           0
           0           0           0           0           0           0
           0           0           0           5           4           1
           0           0           0           0           0           0
           0           0           0           0           0           0
           0           0           0           0           0           0
           0           0           0           0           0           0
           0           0           0           0
Num RLSW                                   I               52
RLSW                                       R   N=          52
  1.00000000E+00  1.00000000E+00  1.00000000E+00  1.00000000E+00  1.00000000E+00
  0.00000000E+00  0.00000000E+00  1.00000000E+00  0.00000000E+00  0.00000000E+00
  0.00000000E+00  0.00000000E+00  1.00000000E+00  0.00000000E+00  0.00000000E+00
  0.00000000E+00  0.00000000E+00  1.00000000E+00  0.00000000E+00  0.00000000E+00
  0.00000000E+00  0.00000000E+00  1.00000000E+00  0.00000000E+00  0.00000000E+00
  0.00000000E+00  0.00000000E+00  1.00000000E+00  0.00000000E+00  0.00000000E+00
  0.00000000E+00  0.00000000E+00  1.00000000E+00  0.00000000E+00  0.00000000E+00
  0.00000000E+00  0.00000000E+00  0.00000000E+00  1.00000000E+00  1.00000000E+00
  0.00000000E+00  1.00000000E+00  0.00000000E+00  0.00000000E+00  0.00000000E+00
  0.00000000E+00  0.00000000E+00  0.00000000E+00  0.00000000E+00  0.00000000E+00
  0.00000000E+00  0.00000000E+00
MxBond                                     I                2
NBond                                      I   N=           5
           1           2           2           2           1
IBond                                      I   N=          10
           2           0           1           3           2           4
           3           5           4           0
RBond                                      R   N=          10
  1.00000000E+00  0.00000000E+00  1.00000000E+00  1.00000000E+00  1.00000000E+00
  1.00000000E+00  1.00000000E+00  2.00000000E+00  2.00000000E+00  0.00000000E+00
Virial Ratio                               R      2.002259305360758E+00
SCF Energy                                 R     -2.795063285360478E+02
MP2 Energy                                 R     -2.804551033294951E+02
Total Energy                               R     -2.804551033294951E+02
Post-SCF wavefunction norm                 R      1.583803632702137E+00
RMS Force                                  R      2.596595859574140E-03
RMS Density                                R      4.303552681223085E-09
NImag                                      I                0
Job Status                                 I                1
Nuclear derivative order                   I                2
External E-field                           R   N=          35
  0.00000000E+00  0.00000000E+00  0.00000000E+00  0.00000000E+00  0.00000000E+00
  0.00000000E+00  0.00000000E+00  0.00000000E+00  0.00000000E+00  0.00000000E+00
  0.00000000E+00  0.00000000E+00  0.00000000E+00  0.00000000E+00  0.00000000E+00
  0.00000000E+00  0.00000000E+00  0.00000000E+00  0.00000000E+00  0.00000000E+00
  0.00000000E+00  0.00000000E+00  0.00000000E+00  0.00000000E+00  0.00000000E+00
  0.00000000E+00  0.00000000E+00  0.00000000E+00  0.00000000E+00  0.00000000E+00
  0.00000000E+00  0.00000000E+00  0.00000000E+00  0.00000000E+00  0.00000000E+00
IOpCl                                      I                0
IROHF                                      I                0
Alpha Orbital Energies                     R   N=         207
 -2.07209914E+01 -2.06878194E+01 -2.06690192E+01 -1.58252723E+01 -1.64285419E+00
 -1.50675058E+00 -1.29428413E+00 -9.60720788E-01 -8.33214027E-01 -7.58689091E-01
 -7.39783755E-01 -6.38987926E-01 -6.19806818E-01 -6.19134986E-01 -5.02638293E-01
 -4.98155675E-01  3.49632245E-02  6.09130954E-02  9.51058886E-02  1.00555687E-01
  1.19745378E-01  1.22680821E-01  1.48935927E-01  1.51853152E-01  1.77703504E-01
  1.80368972E-01  1.89551297E-01  2.11108892E-01  2.16736537E-01  2.42604229E-01
  2.46354170E-01  2.68249680E-01  3.11302018E-01  3.15479328E-01  3.38107575E-01
  3.42801909E-01  3.46185046E-01  3.92642219E-01  4.46938491E-01  4.88564803E-01
  5.04497230E-01  5.19018719E-01  5.44064692E-01  5.62258969E-01  5.99276895E-01
  6.20851387E-01  6.39614763E-01  6.89227602E-01  7.17382749E-01  7.23810145E-01
  7.39254434E-01  7.65015099E-01  7.67589826E-01  7.95653052E-01  8.04670048E-01
  8.40233717E-01  8.43156624E-01  8.50882776E-01  8.84744154E-01  9.06709541E-01
  9.27308939E-01  9.48861792E-01  9.54662634E-01  1.01789617E+00  1.03166421E+00
  1.05513193E+00  1.06505132E+00  1.09300809E+00  1.14241178E+00  1.15567798E+00
  1.17200984E+00  1.22051690E+00  1.22664533E+00  1.24617007E+00  1.35062900E+00
  1.36409559E+00  1.37050188E+00  1.46916790E+00  1.48367294E+00  1.50702815E+00
  1.54114882E+00  1.59062075E+00  1.59639444E+00  1.60516570E+00  1.62831924E+00
  1.69575475E+00  1.74016918E+00  1.80154750E+00  1.82825910E+00  1.88727937E+00
  1.89654825E+00  1.92690494E+00  1.98026687E+00  1.99117426E+00  2.04910569E+00
  2.12095150E+00  2.13012202E+00  2.16412694E+00  2.18591908E+00  2.24189244E+00
  2.25965843E+00  2.29468365E+00  2.35190015E+00  2.36172402E+00  2.38630717E+00
  2.40195585E+00  2.43365195E+00  2.47035036E+00  2.47852577E+00  2.52640671E+00
  2.53751732E+00  2.54552964E+00  2.55665683E+00  2.61201378E+00  2.62740333E+00
  2.66996941E+00  2.67075469E+00  2.75617047E+00  2.80851347E+00  2.81063884E+00
  2.84263380E+00  2.91679940E+00  2.97640420E+00  3.04872127E+00  3.05431710E+00
  3.11530153E+00  3.11794927E+00  3.17207370E+00  3.21272189E+00  3.30587906E+00
  3.33472490E+00  3.36019618E+00  3.48184453E+00  3.67715800E+00  3.86877570E+00
  3.92446024E+00  4.18026193E+00  4.21624585E+00  4.21837875E+00  4.26564717E+00
  4.36518007E+00  4.50135472E+00  4.51049642E+00  4.55942453E+00  4.60025859E+00
  4.69164589E+00  4.80811920E+00  4.90409328E+00  4.91236875E+00  4.94377878E+00
  4.99540978E+00  5.00466228E+00  5.10830854E+00  5.13478897E+00  5.17647892E+00
  5.24782395E+00  5.25506804E+00  5.31585565E+00  5.33801908E+00  5.35301206E+00
  5.54240378E+00  5.64275800E+00  5.70136976E+00  5.88405963E+00  6.00213695E+00
  6.26402490E+00  6.29597462E+00  6.35912704E+00  6.37622991E+00  6.59875132E+00
  6.64840995E+00  6.65801520E+00  6.68415576E+00  6.72324688E+00  6.80613084E+00
  6.80692493E+00  6.83889844E+00  6.96984332E+00  7.01883249E+00  7.06613608E+00
  7.08047129E+00  7.14097191E+00  7.16317861E+00  7.17536149E+00  7.20259786E+00
  7.24434010E+00  7.24444733E+00  7.26956487E+00  7.34808124E+00  7.39589451E+00
  7.42262053E+00  7.44261431E+00  7.46166683E+00  7.55979847E+00  7.65281263E+00
  7.66364404E+00  7.79437373E+00  7.88214463E+00  7.95281016E+00  8.05451690E+00
  8.30432390E+00  8.50275077E+00  8.65253484E+00  1.36107157E+01  1.47621484E+01
  1.50991036E+01  1.57326792E+01
Alpha MO coefficients                      R   N=       42849
  6.57342750E-05 -5.47714104E-05 -1.11311304E-03  9.45394099E-06 -5.22003250E-05
  4.22500131E-05  0.00000000E+00 -8.16900792E-05 -3.02978778E-04  0.00000000E+00
  3.73993853E-06 -3.46038983E-04  0.00000000E+00  4.34557582E-05  0.00000000E+00
  0.00000000E+00 -2.51292810E-05  1.28633123E-05  2.24955661E-04  0.00000000E+00
  0.00000000E+00 -3.66507942E-05 -2.03814826E-04  3.04008105E-03 -9.55359074E-05
 -1.01901790E-04  3.58923965E-03  2.48255532E-03  1.04064549E-04 -5.21977054E-05
  0.00000000E+00 -7.37189330E-04  2.77842518E-04  0.00000000E+00 -2.01249673E-03
  1.08671016E-03  0.00000000E+00 -5.37824985E-04  3.91732511E-05  0.00000000E+00
  2.05903290E-05  0.00000000E+00  0.00000000E+00 -9.37214668E-06  4.41051722E-05
 -4.45822957E-04  0.00000000E+00  0.00000000E+00  4.36312269E-04 -6.56367960E-04
 -3.66389388E-04  0.00000000E+00  0.00000000E+00  5.55329131E-04 -7.31286907E-04
  0.00000000E+00  7.50254199E-05 -5.16403776E-05  0.00000000E+00  0.00000000E+00
 -2.91537121E-05  1.07309090E-04  0.00000000E+00  2.07483153E-04 -5.07896025E-05
  0.00000000E+00  0.00000000E+00 -1.75871824E-04  2.98510894E-04  9.76907046E-01
 -9.17092577E-03  4.34027361E-02  5.14196039E-04 -2.21241179E-03  4.69110742E-04
 -2.14463142E-03  0.00000000E+00 -3.39034362E-04  2.25073277E-03  0.00000000E+00
 -2.34353327E-03 -4.90013147E-04  0.00000000E+00 -2.25492657E-04  9.74929561E-05
  0.00000000E+00  7.82082392E-06  0.00000000E+00  0.00000000E+00 -4.33472909E-06
  3.75999517E-05  8.28221178E-04  0.00000000E+00  0.00000000E+00 -4.72759624E-04
 -1.78186140E-04 -1.32211787E-04  0.00000000E+00  0.00000000E+00 -5.47651576E-04
  3.55917221E-04  0.00000000E+00 -6.12383832E-06 -7.86880322E-05  0.00000000E+00
  0.00000000E+00 -9.56392879E-06  4.86709375E-05  0.00000000E+00  9.37329132E-05
 -1.20169914E-06  0.00000000E+00  0.00000000E+00 -3.46233999E-04  3.74473268E-04
  1.04280274E-04  4.58223847E-04 -3.22758444E-04 -8.20694179E-04  3.62221202E-04
 -4.22592988E-05 -1.00715997E-04  0.00000000E+00  6.91799392E-04  1.11810809E-03
  0.00000000E+00 -8.16814010E-04 -7.45577147E-04  0.00000000E+00  1.89059582E-04
  2.08091192E-04  0.00000000E+00 -5.23204855E-05  0.00000000E+00  0.00000000E+00
  2.00396767E-05  9.24849467E-05 -4.15004597E-04  0.00000000E+00  0.00000000E+00
  1.96979901E-05  1.08999408E-03  2.77128503E-05  0.00000000E+00  0.00000000E+00
 -3.43657591E-04  2.23073860E-05  0.00000000E+00 -7.75536355E-05 -1.15031981E-04
  0.00000000E+00  0.00000000E+00 -9.76224399E-05  1.05123633E-04  0.00000000E+00
 -1.19538283E-04  5.06518587E-05  0.00000000E+00  0.00000000E+00  1.14094016E-05
  5.29934695E-04 -6.83864010E-04  2.47769014E-05 -7.24741512E-05  1.57060167E-04
 -1.75477861E-04 -3.04277289E-05 -4.33043589E-05  0.00000000E+00  1.76648289E-04
  2.49762990E-04  0.00000000E+00  5.89081724E-04  3.42903887E-04  0.00000000E+00
 -2.03753553E-04 -6.31608209E-05  0.00000000E+00 -1.17312860E-05  0.00000000E+00
  0.00000000E+00  4.90602534E-06  1.23318264E-05 -9.73083540E-06  0.00000000E+00
  0.00000000E+00 -1.73068493E-04  3.12974440E-05 -3.50720566E-05  0.00000000E+00
  0.00000000E+00 -1.75182436E-04 -8.54634366E-06  0.00000000E+00 -6.56601447E-06
 -1.10945248E-05  0.00000000E+00  0.00000000E+00 -2.29791076E-05  8.03639736E-06
  0.00000000E+00  4.04057827E-05  5.75015610E-05  0.00000000E+00  0.00000000E+00
  1.45107278E-04 -1.05540911E-04  4.21861862E-05  6.34848333E-05 -1.38543573E-04
 -3.04996209E-05  1.26051107E-05  5.93030395E-06  0.00000000E+00  2.52651931E-04
  8.25719413E-05  0.00000000E+00  1.36848118E-04  3.32777685E-05  0.00000000E+00
  1.63108656E-05  0.00000000E+00  0.00000000E+00 -1.71981540E-05  1.26030764E-05
  2.70597579E-05  0.00000000E+00  0.00000000E+00 -1.12446054E-04  5.36271853E-05
 -2.49088501E-04  1.62524493E-05 -1.54616643E-05 -5.71321195E-04  1.61675066E-04
  7.58527188E-06  1.37811759E-05  0.00000000E+00  1.74405997E-06 -3.77884357E-05
  0.00000000E+00  1.89509115E-04  1.17825223E-04  0.00000000E+00 -4.95643859E-05
  4.54342530E-05  0.00000000E+00 -4.08421528E-07  0.00000000E+00  0.00000000E+00
 -8.81602099E-06 -1.31431496E-05  1.62440057E-05  0.00000000E+00  0.00000000E+00
  5.05547638E-05  1.10650548E-04  5.64110547E-05  0.00000000E+00  0.00000000E+00
 -2.73952315E-05 -7.34841348E-05  0.00000000E+00  7.98541668E-06  1.06712641E-05
  0.00000000E+00  0.00000000E+00 -1.44361316E-06 -2.25151946E-05  0.00000000E+00
 -1.18103806E-05 -3.14035287E-05  0.00000000E+00  0.00000000E+00 -3.89014888E-06
 -2.27261015E-05  7.08099862E-04  1.91736136E-05 -2.34275512E-05  3.09308509E-04
 -3.79773266E-04  1.75979037E-05  3.03635478E-05  0.00000000E+00 -6.96381255E-05
 -1.63287302E-04  0.00000000E+00  1.85565050E-04 -2.27600797E-04  0.00000000E+00
 -1.53098379E-04  1.42885951E-04  0.00000000E+00 -3.72124001E-06  0.00000000E+00
  0.00000000E+00 -2.71420101E-05 -1.11227507E-05 -5.63074343E-05  0.00000000E+00
  0.00000000E+00  6.32692546E-05  1.31934618E-04 -6.88493282E-05  0.00000000E+00
  0.00000000E+00  3.17488852E-05  2.20508593E-05  0.00000000E+00  4.01149728E-06
  5.69263889E-06  0.00000000E+00  0.00000000E+00 -5.92982606E-06 -6.54074998E-07
  0.00000000E+00  2.90825024E-06 -2.56444506E-05  0.00000000E+00  0.00000000E+00
  1.05315343E-04 -1.46943766E-04  2.37722285E-04  1.36432260E-03 -1.45022704E-04
 -6.70786747E-04  9.05551199E-04  6.38724056E-05 -6.98171269E-05  0.00000000E+00
  5.44631586E-04 -2.10855479E-03  0.00000000E+00  1.16125652E-04  5.24325275E-04
  0.00000000E+00  1.78540475E-04 -3.13462001E-04  0.00000000E+00 -1.28360451E-04
  0.00000000E+00  0.00000000E+00 -2.06842262E-04 -1.53277075E-04 -4.58039746E-04
  0.00000000E+00  0.00000000E+00 -6.36733514E-04 -9.16980328E-04 -4.16974245E-05
  0.00000000E+00  0.00000000E+00  5.23134086E-05  1.19235713E-04  0.00000000E+00
  9.56270903E-06  3.86713498E-05  0.00000000E+00  0.00000000E+00 -2.49198958E-05
 -3.46326753E-06  0.00000000E+00 -1.31594129E-04  1.55162377E-04  0.00000000E+00
  0.00000000E+00 -3.25548235E-04 -3.19311265E-05  9.76649219E-01 -9.89002494E-03
  4.35700499E-02  3.68637190E-03 -8.97389152E-04 -4.11237235E-04  2.14378641E-03
  0.00000000E+00  4.67970083E-04 -2.52389036E-03  0.00000000E+00 -5.07543952E-05
  7.99733399E-04  0.00000000E+00  1.08180133E-04 -6.57745332E-05  0.00000000E+00
 -1.93107514E-04  0.00000000E+00  0.00000000E+00 -7.56657428E-05 -4.36146896E-05
  4.10330166E-04  0.00000000E+00  0.00000000E+00  8.81537946E-04  4.58542930E-04
 -2.04664549E-04  0.00000000E+00  0.00000000E+00 -1.28228807E-04 -3.38279177E-05
  0.00000000E+00 -3.70558455E-06  7.06074878E-05  0.00000000E+00  0.00000000E+00
 -2.97841868E-05  1.16758700E-05  0.00000000E+00 -8.81653507E-05  9.35315029E-05
  0.00000000E+00  0.00000000E+00 -1.56976755E-04  2.16516035E-04  3.79450723E-04
  1.97695322E-03  1.33080678E-03 -2.19000387E-05  4.78548873E-05  2.68932503E-04
  0.00000000E+00  3.99609868E-04  1.03498127E-03  0.00000000E+00 -1.12479009E-04
  2.42451787E-04  0.00000000E+00 -2.26228072E-05  0.00000000E+00  0.00000000E+00
  3.12777009E-05 -2.75889113E-05 -2.13951467E-04  0.00000000E+00  0.00000000E+00
 -3.50067875E-04  3.97757770E-04  9.76835122E-01 -9.18654180E-03  4.34638688E-02
  1.60508609E-04 -1.91200128E-03 -2.03965356E-03 -8.51990429E-04  0.00000000E+00
  2.07426156E-03  7.86802905E-04  0.00000000E+00 -4.25624985E-04  6.55358857E-04
  0.00000000E+00  2.26699799E-04 -2.96875516E-04  0.00000000E+00  3.12824004E-05
  0.00000000E+00  0.00000000E+00 -7.40460487E-05  6.15889243E-05  7.65505427E-04
  0.00000000E+00  0.00000000E+00 -2.09912969E-04  3.51479525E-04 -2.35628172E-04
  0.00000000E+00  0.00000000E+00  3.43421508E-04  4.55062389E-06  0.00000000E+00
 -8.02129268E-05  1.63957854E-06  0.00000000E+00  0.00000000E+00  1.69119415E-05