 Entering Gaussian System, Link 0=g16
 Input=hoono_r4_1p161865.gjf
 Output=hoono_r4_1p161865.log
 Initial command:
 /sw/contrib/gaussian/g16/B01/g16/l1.exe "/scr/Gau-17073.inp" -scrdir="/scr/"
 Entering Link 1 = /sw/contrib/gaussian/g16/B01/g16/l1.exe PID=     17074.
  
 Copyright (c) 1988-2017, Gaussian, Inc.  All Rights Reserved.
  
 This is part of the Gaussian(R) 16 program.  It is based on
 the Gaussian(R) 09 system (copyright 2009, Gaussian, Inc.),
 the Gaussian(R) 03 system (copyright 2003, Gaussian, Inc.),
 the Gaussian(R) 98 system (copyright 1998, Gaussian, Inc.),
 the Gaussian(R) 94 system (copyright 1995, Gaussian, Inc.),
 the Gaussian 92(TM) system (copyright 1992, Gaussian, Inc.),
 the Gaussian 90(TM) system (copyright 1990, Gaussian, Inc.),
 the Gaussian 88(TM) system (copyright 1988, Gaussian, Inc.),
 the Gaussian 86(TM) system (copyright 1986, Carnegie Mellon
 University), and the Gaussian 82(TM) system (copyright 1983,
 Carnegie Mellon University). Gaussian is a federally registered
 trademark of Gaussian, Inc.
  
 This software contains proprietary and confidential information,
 including trade secrets, belonging to Gaussian, Inc.
  
 This software is provided under written license and may be
 used, copied, transmitted, or stored only in accord with that
 written license.
  
 The following legend is applicable only to US Government
 contracts under FAR:
  
                    RESTRICTED RIGHTS LEGEND
  
 Use, reproduction and disclosure by the US Government is
 subject to restrictions as set forth in subparagraphs (a)
 and (c) of the Commercial Computer Software - Restricted
 Rights clause in FAR 52.227-19.
  
 Gaussian, Inc.
 340 Quinnipiac St., Bldg. 40, Wallingford CT 06492
  
  
 ---------------------------------------------------------------
 Warning -- This program may not be used in any manner that
 competes with the business of Gaussian, Inc. or will provide
 assistance to any competitor of Gaussian, Inc.  The licensee
 of this program is prohibited from giving any competitor of
 Gaussian, Inc. access to this program.  By using this program,
 the user acknowledges that Gaussian, Inc. is engaged in the
 business of creating and licensing software in the field of
 computational chemistry and represents and warrants to the
 licensee that it is not a competitor of Gaussian, Inc. and that
 it will not use this program in any manner prohibited above.
 ---------------------------------------------------------------
  

 Cite this work as:
 Gaussian 16, Revision B.01,
 M. J. Frisch, G. W. Trucks, H. B. Schlegel, G. E. Scuseria, 
 M. A. Robb, J. R. Cheeseman, G. Scalmani, V. Barone, 
 G. A. Petersson, H. Nakatsuji, X. Li, M. Caricato, A. V. Marenich, 
 J. Bloino, B. G. Janesko, R. Gomperts, B. Mennucci, H. P. Hratchian, 
 J. V. Ortiz, A. F. Izmaylov, J. L. Sonnenberg, D. Williams-Young, 
 F. Ding, F. Lipparini, F. Egidi, J. Goings, B. Peng, A. Petrone, 
 T. Henderson, D. Ranasinghe, V. G. Zakrzewski, J. Gao, N. Rega, 
 G. Zheng, W. Liang, M. Hada, M. Ehara, K. Toyota, R. Fukuda, 
 J. Hasegawa, M. Ishida, T. Nakajima, Y. Honda, O. Kitao, H. Nakai, 
 T. Vreven, K. Throssell, J. A. Montgomery, Jr., J. E. Peralta, 
 F. Ogliaro, M. J. Bearpark, J. J. Heyd, E. N. Brothers, K. N. Kudin, 
 V. N. Staroverov, T. A. Keith, R. Kobayashi, J. Normand, 
 K. Raghavachari, A. P. Rendell, J. C. Burant, S. S. Iyengar, 
 J. Tomasi, M. Cossi, J. M. Millam, M. Klene, C. Adamo, R. Cammi, 
 J. W. Ochterski, R. L. Martin, K. Morokuma, O. Farkas, 
 J. B. Foresman, and D. J. Fox, Gaussian, Inc., Wallingford CT, 2016.
 
 ******************************************
 Gaussian 16:  ES64L-G16RevB.01 20-Dec-2017
                14-Feb-2022 
 ******************************************
 %nproc=28
 Will use up to   28 processors via shared memory.
 %mem=120GB
 %chk=hoono_r4_1p161865.chk
 -------------------------------------
 #p SP mp2/aug-cc-pvtz density=current
 -------------------------------------
 1/30=1,38=1,172=1/1;
 2/12=2,17=6,18=5,40=1/2;
 3/5=16,6=1,7=10,11=9,25=1,30=1,71=1/1,2,3;
 4//1;
 5/5=2,38=5/2;
 8/6=4,10=1/1;
 9/15=1,16=-3/6;
 10/5=1,13=10/2;
 6/7=2,8=2,9=2,10=2,22=-1/1;
 99/5=1,9=1/99;
 Leave Link    1 at Mon Feb 14 22:11:19 2022, MaxMem= 16106127360 cpu:               3.8 elap:               0.1
 (Enter /sw/contrib/gaussian/g16/B01/g16/l101.exe)
 -----
 title
 -----
 Symbolic Z-matrix:
 Charge =  0 Multiplicity = 1
 H
 O                    1    r1
 O                    2    r2       1    a1
 N                    3    r3       2    a2       1    d1       0
 O                    4    r4       3    a3       2    d2       0
       Variables:
  r1                    0.96898                  
  r2                    1.45492                  
  r3                    1.45878                  
  r4                    1.16187                  
  a1                   97.59495                  
  a2                  102.29752                  
  a3                  109.06955                  
  d1                  180.                       
  d2                  180.                       
 
 ITRead=  0  0  0  0  0
 MicOpt= -1 -1 -1 -1 -1
 NAtoms=      5 NQM=        5 NQMF=       0 NMMI=      0 NMMIF=      0
                NMic=       0 NMicF=      0.
                    Isotopes and Nuclear Properties:
 (Nuclear quadrupole moments (NQMom) in fm**2, nuclear magnetic moments (NMagM)
  in nuclear magnetons)

  Atom         1           2           3           4           5
 IAtWgt=           1          16          16          14          16
 AtmWgt=   1.0078250  15.9949146  15.9949146  14.0030740  15.9949146
 NucSpn=           1           0           0           2           0
 AtZEff=  -0.0000000  -0.0000000  -0.0000000  -0.0000000  -0.0000000
 NQMom=    0.0000000   0.0000000   0.0000000   2.0440000   0.0000000
 NMagM=    2.7928460   0.0000000   0.0000000   0.4037610   0.0000000
 AtZNuc=   1.0000000   8.0000000   8.0000000   7.0000000   8.0000000
 Leave Link  101 at Mon Feb 14 22:11:19 2022, MaxMem= 16106127360 cpu:               2.7 elap:               0.1
 (Enter /sw/contrib/gaussian/g16/B01/g16/l202.exe)
                          Input orientation:                          
 ---------------------------------------------------------------------
 Center     Atomic      Atomic             Coordinates (Angstroms)
 Number     Number       Type             X           Y           Z
 ---------------------------------------------------------------------
      1          1           0        0.000000    0.000000    0.000000
      2          8           0        0.000000    0.000000    0.968976
      3          8           0        1.442156    0.000000    1.161271
      4          7           0        1.561752    0.000000    2.615144
      5          8           0        2.687281    0.000000    2.903440
 ---------------------------------------------------------------------
                    Distance matrix (angstroms):
                    1          2          3          4          5
     1  H    0.000000
     2  O    0.968976   0.000000
     3  O    1.851584   1.454919   0.000000
     4  N    3.045989   2.269127   1.458784   0.000000
     5  O    3.956190   3.311138   2.141376   1.161866   0.000000
 Stoichiometry    HNO3
 Framework group  CS[SG(HNO3)]
 Deg. of freedom     7
 Full point group                 CS      NOp   2
 Largest Abelian subgroup         CS      NOp   2
 Largest concise Abelian subgroup C1      NOp   1
                         Standard orientation:                         
 ---------------------------------------------------------------------
 Center     Atomic      Atomic             Coordinates (Angstroms)
 Number     Number       Type             X           Y           Z
 ---------------------------------------------------------------------
      1          1           0        1.552406    1.681834    0.000000
      2          8           0        1.454218    0.717846    0.000000
      3          8           0        0.000000    0.672676   -0.000000
      4          7           0       -0.266303   -0.761595    0.000000
      5          8           0       -1.415253   -0.934355   -0.000000
 ---------------------------------------------------------------------
 Rotational constants (GHZ):          55.0147160           5.0320448           4.6103489
 Leave Link  202 at Mon Feb 14 22:11:19 2022, MaxMem= 16106127360 cpu:               0.2 elap:               0.0
 (Enter /sw/contrib/gaussian/g16/B01/g16/l301.exe)
 Standard basis: Aug-CC-pVTZ (5D, 7F)
 Ernie: Thresh=  0.10000D-02 Tol=  0.10000D-05 Strict=F.
 Ernie:  12 primitive shells out of 131 were deleted.
 There are   166 symmetry adapted cartesian basis functions of A'  symmetry.
 There are    79 symmetry adapted cartesian basis functions of A"  symmetry.
 There are   136 symmetry adapted basis functions of A'  symmetry.
 There are    71 symmetry adapted basis functions of A"  symmetry.
   207 basis functions,   315 primitive gaussians,   245 cartesian basis functions
    16 alpha electrons       16 beta electrons
       nuclear repulsion energy       117.1425400310 Hartrees.
 IExCor=    0 DFT=F Ex=HF Corr=None ExCW=0 ScaHFX=  1.000000
 ScaDFX=  1.000000  1.000000  1.000000  1.000000 ScalE2=  1.000000  1.000000
 IRadAn=      5 IRanWt=     -1 IRanGd=            0 ICorTp=0 IEmpDi=  4
 NAtoms=    5 NActive=    5 NUniq=    5 SFac= 1.00D+00 NAtFMM=   60 NAOKFM=F Big=F
 Integral buffers will be    131072 words long.
 Raffenetti 1 integral format.
 Two-electron integral symmetry is turned on.
 Leave Link  301 at Mon Feb 14 22:11:19 2022, MaxMem= 16106127360 cpu:               2.2 elap:               0.1
 (Enter /sw/contrib/gaussian/g16/B01/g16/l302.exe)
 NPDir=0 NMtPBC=     1 NCelOv=     1 NCel=       1 NClECP=     1 NCelD=      1
         NCelK=      1 NCelE2=     1 NClLst=     1 CellRange=     0.0.
 One-electron integrals computed using PRISM.
 One-electron integral symmetry used in STVInt
 NBasis=   207 RedAO= T EigKep=  1.80D-04  NBF=   136    71
 NBsUse=   207 1.00D-06 EigRej= -1.00D+00 NBFU=   136    71
 Leave Link  302 at Mon Feb 14 22:11:19 2022, MaxMem= 16106127360 cpu:               4.3 elap:               0.2
 (Enter /sw/contrib/gaussian/g16/B01/g16/l303.exe)
 DipDrv:  MaxL=1.
 Leave Link  303 at Mon Feb 14 22:11:19 2022, MaxMem= 16106127360 cpu:               2.5 elap:               0.1
 (Enter /sw/contrib/gaussian/g16/B01/g16/l401.exe)
 ExpMin= 2.53D-02 ExpMax= 1.53D+04 ExpMxC= 5.22D+02 IAcc=3 IRadAn=         5 AccDes= 0.00D+00
 Harris functional with IExCor=  205 and IRadAn=       5 diagonalized for initial guess.
 HarFok:  IExCor=  205 AccDes= 0.00D+00 IRadAn=         5 IDoV= 1 UseB2=F ITyADJ=14
 ICtDFT=  3500011 ScaDFX=  1.000000  1.000000  1.000000  1.000000
 FoFCou: FMM=F IPFlag=           0 FMFlag=      100000 FMFlg1=           0
         NFxFlg=           0 DoJE=T BraDBF=F KetDBF=T FulRan=T
         wScrn=  0.000000 ICntrl=       500 IOpCl=  0 I1Cent=   200000004 NGrid=           0
         NMat0=    1 NMatS0=      1 NMatT0=    0 NMatD0=    1 NMtDS0=    0 NMtDT0=    0
 Petite list used in FoFCou.
 Harris En= -279.628470258012    
 JPrj=0 DoOrth=F DoCkMO=F.
 Initial guess orbital symmetries:
       Occupied  (A') (A') (A') (A') (A') (A') (A') (A') (A') (A')
                 (A") (A') (A') (A") (A") (A')
       Virtual   (A") (A') (A') (A') (A') (A') (A") (A') (A') (A')
                 (A") (A') (A") (A') (A') (A") (A') (A") (A') (A')
                 (A') (A') (A') (A') (A') (A") (A') (A") (A') (A')
                 (A") (A') (A") (A') (A') (A") (A') (A") (A') (A')
                 (A") (A') (A") (A') (A") (A') (A') (A') (A") (A")
                 (A') (A') (A') (A') (A") (A') (A") (A') (A") (A')
                 (A') (A') (A") (A') (A') (A") (A') (A") (A') (A')
                 (A") (A') (A') (A") (A") (A') (A') (A") (A') (A')
                 (A') (A") (A') (A") (A') (A") (A') (A") (A') (A')
                 (A') (A") (A') (A") (A') (A") (A") (A') (A') (A")
                 (A') (A') (A") (A') (A') (A') (A') (A") (A") (A')
                 (A") (A') (A') (A') (A") (A') (A') (A') (A") (A')
                 (A") (A') (A") (A') (A") (A') (A') (A") (A") (A')
                 (A') (A') (A') (A") (A") (A') (A") (A') (A') (A')
                 (A') (A") (A") (A') (A') (A") (A') (A') (A') (A')
                 (A") (A') (A') (A") (A') (A") (A') (A") (A') (A")
                 (A') (A") (A') (A") (A') (A") (A") (A") (A') (A')
                 (A") (A') (A") (A') (A') (A") (A") (A") (A') (A')
                 (A') (A') (A') (A') (A') (A') (A') (A') (A') (A')
                 (A')
 The electronic state of the initial guess is 1-A'.
 Leave Link  401 at Mon Feb 14 22:11:20 2022, MaxMem= 16106127360 cpu:               6.5 elap:               0.3
 (Enter /sw/contrib/gaussian/g16/B01/g16/l502.exe)
 Keep R1 ints in memory in symmetry-blocked form, NReq=348887737.
 FoFCou: FMM=F IPFlag=           0 FMFlag=           0 FMFlg1=           0
         NFxFlg=           0 DoJE=F BraDBF=F KetDBF=F FulRan=T
         wScrn=  0.000000 ICntrl=       600 IOpCl=  0 I1Cent=           0 NGrid=           0
         NMat0=    1 NMatS0=  21528 NMatT0=    0 NMatD0=    1 NMtDS0=    0 NMtDT0=    0
 Petite list used in FoFCou.
 Closed shell SCF:
 Using DIIS extrapolation, IDIIS=  1040.
 NGot= 16106127360 LenX= 15988850015 LenY= 15988789549
 Requested convergence on RMS density matrix=1.00D-08 within 128 cycles.
 Requested convergence on MAX density matrix=1.00D-06.
 Requested convergence on             energy=1.00D-06.
 No special actions if energy rises.

 Cycle   1  Pass 1  IDiag  1:
 E= -279.373619457880    
 DIIS: error= 2.69D-02 at cycle   1 NSaved=   1.
 NSaved= 1 IEnMin= 1 EnMin= -279.373619457880     IErMin= 1 ErrMin= 2.69D-02
 ErrMax= 2.69D-02  0.00D+00 EMaxC= 1.00D-01 BMatC= 4.37D-01 BMatP= 4.37D-01
 IDIUse=3 WtCom= 7.31D-01 WtEn= 2.69D-01
 Coeff-Com:  0.100D+01
 Coeff-En:   0.100D+01
 Coeff:      0.100D+01
 Gap=     0.516 Goal=   None    Shift=    0.000
 GapD=    0.516 DampG=2.000 DampE=0.500 DampFc=1.0000 IDamp=-1.
 RMSDP=1.61D-03 MaxDP=9.86D-02              OVMax= 1.09D-01

 Cycle   2  Pass 1  IDiag  1:
 E= -279.456318136770     Delta-E=       -0.082698678891 Rises=F Damp=F
 DIIS: error= 1.76D-02 at cycle   2 NSaved=   2.
 NSaved= 2 IEnMin= 2 EnMin= -279.456318136770     IErMin= 2 ErrMin= 1.76D-02
 ErrMax= 1.76D-02  0.00D+00 EMaxC= 1.00D-01 BMatC= 6.83D-02 BMatP= 4.37D-01
 IDIUse=3 WtCom= 8.24D-01 WtEn= 1.76D-01
 Coeff-Com:  0.188D+00 0.812D+00
 Coeff-En:   0.000D+00 0.100D+01
 Coeff:      0.155D+00 0.845D+00
 Gap=     0.525 Goal=   None    Shift=    0.000
 RMSDP=8.82D-04 MaxDP=3.66D-02 DE=-8.27D-02 OVMax= 6.79D-02

 Cycle   3  Pass 1  IDiag  1:
 E= -279.483889574782     Delta-E=       -0.027571438011 Rises=F Damp=F
 DIIS: error= 1.02D-02 at cycle   3 NSaved=   3.
 NSaved= 3 IEnMin= 3 EnMin= -279.483889574782     IErMin= 3 ErrMin= 1.02D-02
 ErrMax= 1.02D-02  0.00D+00 EMaxC= 1.00D-01 BMatC= 2.74D-02 BMatP= 6.83D-02
 IDIUse=3 WtCom= 8.98D-01 WtEn= 1.02D-01
 Coeff-Com: -0.327D-01 0.379D+00 0.654D+00
 Coeff-En:   0.000D+00 0.239D+00 0.761D+00
 Coeff:     -0.294D-01 0.364D+00 0.665D+00
 Gap=     0.509 Goal=   None    Shift=    0.000
 RMSDP=3.68D-04 MaxDP=1.49D-02 DE=-2.76D-02 OVMax= 3.67D-02

 Cycle   4  Pass 1  IDiag  1:
 E= -279.502035111556     Delta-E=       -0.018145536775 Rises=F Damp=F
 DIIS: error= 1.28D-03 at cycle   4 NSaved=   4.
 NSaved= 4 IEnMin= 4 EnMin= -279.502035111556     IErMin= 4 ErrMin= 1.28D-03
 ErrMax= 1.28D-03  0.00D+00 EMaxC= 1.00D-01 BMatC= 4.83D-04 BMatP= 2.74D-02
 IDIUse=3 WtCom= 9.87D-01 WtEn= 1.28D-02
 Coeff-Com: -0.116D-01 0.593D-01 0.161D+00 0.791D+00
 Coeff-En:   0.000D+00 0.000D+00 0.000D+00 0.100D+01
 Coeff:     -0.115D-01 0.585D-01 0.159D+00 0.794D+00
 Gap=     0.501 Goal=   None    Shift=    0.000
 RMSDP=8.88D-05 MaxDP=2.76D-03 DE=-1.81D-02 OVMax= 1.10D-02

 Cycle   5  Pass 1  IDiag  1:
 E= -279.502687851672     Delta-E=       -0.000652740116 Rises=F Damp=F
 DIIS: error= 7.28D-04 at cycle   5 NSaved=   5.
 NSaved= 5 IEnMin= 5 EnMin= -279.502687851672     IErMin= 5 ErrMin= 7.28D-04
 ErrMax= 7.28D-04  0.00D+00 EMaxC= 1.00D-01 BMatC= 8.48D-05 BMatP= 4.83D-04
 IDIUse=3 WtCom= 9.93D-01 WtEn= 7.28D-03
 Coeff-Com:  0.602D-02-0.721D-01-0.117D+00 0.217D-01 0.116D+01
 Coeff-En:   0.000D+00 0.000D+00 0.000D+00 0.000D+00 0.100D+01
 Coeff:      0.597D-02-0.716D-01-0.116D+00 0.216D-01 0.116D+01
 Gap=     0.501 Goal=   None    Shift=    0.000
 RMSDP=7.48D-05 MaxDP=2.06D-03 DE=-6.53D-04 OVMax= 1.08D-02

 Cycle   6  Pass 1  IDiag  1:
 E= -279.502991625889     Delta-E=       -0.000303774216 Rises=F Damp=F
 DIIS: error= 2.76D-04 at cycle   6 NSaved=   6.
 NSaved= 6 IEnMin= 6 EnMin= -279.502991625889     IErMin= 6 ErrMin= 2.76D-04
 ErrMax= 2.76D-04  0.00D+00 EMaxC= 1.00D-01 BMatC= 1.62D-05 BMatP= 8.48D-05
 IDIUse=3 WtCom= 9.97D-01 WtEn= 2.76D-03
 Coeff-Com:  0.750D-03-0.371D-03 0.847D-03-0.127D+00-0.204D+00 0.133D+01
 Coeff-En:   0.000D+00 0.000D+00 0.000D+00 0.000D+00 0.000D+00 0.100D+01
 Coeff:      0.748D-03-0.370D-03 0.845D-03-0.127D+00-0.204D+00 0.133D+01
 Gap=     0.501 Goal=   None    Shift=    0.000
 RMSDP=4.41D-05 MaxDP=1.21D-03 DE=-3.04D-04 OVMax= 5.35D-03

 Cycle   7  Pass 1  IDiag  1:
 E= -279.503061303207     Delta-E=       -0.000069677318 Rises=F Damp=F
 DIIS: error= 1.22D-04 at cycle   7 NSaved=   7.
 NSaved= 7 IEnMin= 7 EnMin= -279.503061303207     IErMin= 7 ErrMin= 1.22D-04
 ErrMax= 1.22D-04  0.00D+00 EMaxC= 1.00D-01 BMatC= 4.69D-06 BMatP= 1.62D-05
 IDIUse=3 WtCom= 9.99D-01 WtEn= 1.22D-03
 Coeff-Com: -0.914D-03 0.136D-01 0.265D-01-0.263D-01-0.295D+00 0.415D+00
 Coeff-Com:  0.867D+00
 Coeff-En:   0.000D+00 0.000D+00 0.000D+00 0.000D+00 0.000D+00 0.000D+00
 Coeff-En:   0.100D+01
 Coeff:     -0.913D-03 0.136D-01 0.264D-01-0.263D-01-0.295D+00 0.414D+00
 Coeff:      0.868D+00
 Gap=     0.501 Goal=   None    Shift=    0.000
 RMSDP=1.34D-05 MaxDP=3.77D-04 DE=-6.97D-05 OVMax= 1.54D-03

 Cycle   8  Pass 1  IDiag  1:
 E= -279.503070322156     Delta-E=       -0.000009018949 Rises=F Damp=F
 DIIS: error= 5.42D-05 at cycle   8 NSaved=   8.
 NSaved= 8 IEnMin= 8 EnMin= -279.503070322156     IErMin= 8 ErrMin= 5.42D-05
 ErrMax= 5.42D-05  0.00D+00 EMaxC= 1.00D-01 BMatC= 5.71D-07 BMatP= 4.69D-06
 IDIUse=1 WtCom= 1.00D+00 WtEn= 0.00D+00
 Coeff-Com: -0.451D-03 0.360D-02 0.787D-02 0.270D-01-0.440D-01-0.187D+00
 Coeff-Com:  0.137D+00 0.106D+01
 Coeff:     -0.451D-03 0.360D-02 0.787D-02 0.270D-01-0.440D-01-0.187D+00
 Coeff:      0.137D+00 0.106D+01
 Gap=     0.501 Goal=   None    Shift=    0.000
 RMSDP=6.90D-06 MaxDP=1.99D-04 DE=-9.02D-06 OVMax= 7.51D-04

 Cycle   9  Pass 1  IDiag  1:
 E= -279.503072039565     Delta-E=       -0.000001717410 Rises=F Damp=F
 DIIS: error= 1.46D-05 at cycle   9 NSaved=   9.
 NSaved= 9 IEnMin= 9 EnMin= -279.503072039565     IErMin= 9 ErrMin= 1.46D-05
 ErrMax= 1.46D-05  0.00D+00 EMaxC= 1.00D-01 BMatC= 6.18D-08 BMatP= 5.71D-07
 IDIUse=1 WtCom= 1.00D+00 WtEn= 0.00D+00
 Coeff-Com:  0.113D-03-0.164D-02-0.294D-02-0.153D-02 0.330D-01-0.284D-02
 Coeff-Com: -0.151D+00-0.102D+00 0.123D+01
 Coeff:      0.113D-03-0.164D-02-0.294D-02-0.153D-02 0.330D-01-0.284D-02
 Coeff:     -0.151D+00-0.102D+00 0.123D+01
 Gap=     0.501 Goal=   None    Shift=    0.000
 RMSDP=1.83D-06 MaxDP=6.11D-05 DE=-1.72D-06 OVMax= 1.59D-04

 Cycle  10  Pass 1  IDiag  1:
 E= -279.503072180647     Delta-E=       -0.000000141081 Rises=F Damp=F
 DIIS: error= 3.91D-06 at cycle  10 NSaved=  10.
 NSaved=10 IEnMin=10 EnMin= -279.503072180647     IErMin=10 ErrMin= 3.91D-06
 ErrMax= 3.91D-06  0.00D+00 EMaxC= 1.00D-01 BMatC= 4.90D-09 BMatP= 6.18D-08
 IDIUse=1 WtCom= 1.00D+00 WtEn= 0.00D+00
 Coeff-Com:  0.336D-04-0.285D-03-0.414D-03-0.263D-02 0.250D-02 0.189D-01
 Coeff-Com: -0.136D-01-0.795D-01-0.542D-01 0.113D+01
 Coeff:      0.336D-04-0.285D-03-0.414D-03-0.263D-02 0.250D-02 0.189D-01
 Coeff:     -0.136D-01-0.795D-01-0.542D-01 0.113D+01
 Gap=     0.501 Goal=   None    Shift=    0.000
 RMSDP=4.72D-07 MaxDP=1.94D-05 DE=-1.41D-07 OVMax= 3.69D-05

 Cycle  11  Pass 1  IDiag  1:
 E= -279.503072191297     Delta-E=       -0.000000010651 Rises=F Damp=F
 DIIS: error= 1.83D-06 at cycle  11 NSaved=  11.
 NSaved=11 IEnMin=11 EnMin= -279.503072191297     IErMin=11 ErrMin= 1.83D-06
 ErrMax= 1.83D-06  0.00D+00 EMaxC= 1.00D-01 BMatC= 5.58D-10 BMatP= 4.90D-09
 IDIUse=1 WtCom= 1.00D+00 WtEn= 0.00D+00
 Coeff-Com: -0.196D-04 0.230D-03 0.463D-03 0.473D-03-0.409D-02-0.304D-02
 Coeff-Com:  0.180D-01 0.309D-01-0.132D+00-0.180D+00 0.127D+01
 Coeff:     -0.196D-04 0.230D-03 0.463D-03 0.473D-03-0.409D-02-0.304D-02
 Coeff:      0.180D-01 0.309D-01-0.132D+00-0.180D+00 0.127D+01
 Gap=     0.501 Goal=   None    Shift=    0.000
 RMSDP=1.61D-07 MaxDP=5.87D-06 DE=-1.07D-08 OVMax= 1.60D-05

 Cycle  12  Pass 1  IDiag  1:
 E= -279.503072192776     Delta-E=       -0.000000001479 Rises=F Damp=F
 DIIS: error= 5.49D-07 at cycle  12 NSaved=  12.
 NSaved=12 IEnMin=12 EnMin= -279.503072192776     IErMin=12 ErrMin= 5.49D-07
 ErrMax= 5.49D-07  0.00D+00 EMaxC= 1.00D-01 BMatC= 6.05D-11 BMatP= 5.58D-10
 IDIUse=1 WtCom= 1.00D+00 WtEn= 0.00D+00
 Coeff-Com:  0.969D-06-0.252D-04-0.556D-04 0.162D-03 0.981D-03-0.208D-02
 Coeff-Com: -0.379D-02 0.513D-02 0.392D-01-0.102D+00-0.304D+00 0.137D+01
 Coeff:      0.969D-06-0.252D-04-0.556D-04 0.162D-03 0.981D-03-0.208D-02
 Coeff:     -0.379D-02 0.513D-02 0.392D-01-0.102D+00-0.304D+00 0.137D+01
 Gap=     0.501 Goal=   None    Shift=    0.000
 RMSDP=6.48D-08 MaxDP=2.56D-06 DE=-1.48D-09 OVMax= 6.22D-06

 Cycle  13  Pass 1  IDiag  1:
 E= -279.503072192968     Delta-E=       -0.000000000192 Rises=F Damp=F
 DIIS: error= 1.53D-07 at cycle  13 NSaved=  13.
 NSaved=13 IEnMin=13 EnMin= -279.503072192968     IErMin=13 ErrMin= 1.53D-07
 ErrMax= 1.53D-07  0.00D+00 EMaxC= 1.00D-01 BMatC= 3.42D-12 BMatP= 6.05D-11
 IDIUse=1 WtCom= 1.00D+00 WtEn= 0.00D+00
 Coeff-Com:  0.122D-05-0.135D-04-0.219D-04-0.807D-04 0.123D-03 0.691D-03
 Coeff-Com: -0.661D-03-0.324D-02 0.410D-03 0.389D-01-0.267D-01-0.340D+00
 Coeff-Com:  0.133D+01
 Coeff:      0.122D-05-0.135D-04-0.219D-04-0.807D-04 0.123D-03 0.691D-03
 Coeff:     -0.661D-03-0.324D-02 0.410D-03 0.389D-01-0.267D-01-0.340D+00
 Coeff:      0.133D+01
 Gap=     0.501 Goal=   None    Shift=    0.000
 RMSDP=1.77D-08 MaxDP=5.16D-07 DE=-1.92D-10 OVMax= 1.48D-06

 Cycle  14  Pass 1  IDiag  1:
 E= -279.503072192977     Delta-E=       -0.000000000010 Rises=F Damp=F
 DIIS: error= 2.27D-08 at cycle  14 NSaved=  14.
 NSaved=14 IEnMin=14 EnMin= -279.503072192977     IErMin=14 ErrMin= 2.27D-08
 ErrMax= 2.27D-08  0.00D+00 EMaxC= 1.00D-01 BMatC= 1.67D-13 BMatP= 3.42D-12
 IDIUse=1 WtCom= 1.00D+00 WtEn= 0.00D+00
 Coeff-Com: -0.182D-06 0.300D-05 0.545D-05 0.460D-05-0.791D-04 0.398D-04
 Coeff-Com:  0.257D-03 0.242D-03-0.235D-02 0.103D-02 0.177D-01-0.251D-01
 Coeff-Com: -0.205D+00 0.121D+01
 Coeff:     -0.182D-06 0.300D-05 0.545D-05 0.460D-05-0.791D-04 0.398D-04
 Coeff:      0.257D-03 0.242D-03-0.235D-02 0.103D-02 0.177D-01-0.251D-01
 Coeff:     -0.205D+00 0.121D+01
 Gap=     0.501 Goal=   None    Shift=    0.000
 RMSDP=3.56D-09 MaxDP=8.48D-08 DE=-9.66D-12 OVMax= 3.20D-07

 SCF Done:  E(RHF) =  -279.503072193     A.U. after   14 cycles
            NFock= 14  Conv=0.36D-08     -V/T= 2.0022
 KE= 2.788894880990D+02 PE=-8.956464478110D+02 EE= 2.201113474880D+02
 Leave Link  502 at Mon Feb 14 22:11:23 2022, MaxMem= 16106127360 cpu:              56.8 elap:               3.7
 (Enter /sw/contrib/gaussian/g16/B01/g16/l801.exe)
 ExpMin= 2.53D-02 ExpMax= 1.53D+04 ExpMxC= 5.22D+02 IAcc=3 IRadAn=         5 AccDes= 0.00D+00
 HarFok:  IExCor=  205 AccDes= 0.00D+00 IRadAn=         5 IDoV=-2 UseB2=F ITyADJ=14
 ICtDFT= 12500011 ScaDFX=  1.000000  1.000000  1.000000  1.000000
 Largest valence mixing into a core orbital is  2.08D-04
 Largest core mixing into a valence orbital is  3.60D-05
 Range of M.O.s used for correlation:     5   207
 NBasis=   207 NAE=    16 NBE=    16 NFC=     4 NFV=     0
 NROrb=    203 NOA=    12 NOB=    12 NVA=   191 NVB=   191

 **** Warning!!: The largest alpha MO coefficient is  0.17652783D+02

 Leave Link  801 at Mon Feb 14 22:11:23 2022, MaxMem= 16106127360 cpu:               2.2 elap:               0.1
 (Enter /sw/contrib/gaussian/g16/B01/g16/l906.exe)
 Frozen-core derivative calculation, NFC=   4 NFV=   0.
 FulOut=F Deriv=T AODrv=F NAtomX=     5
   MMem=          76  MDisk=          12 MDiskD=          12
  W3Min=      811440 MinDsk=     1524655 NBas6D=         245
 NBas2D=       30762    NTT=       30135    LW2=     3500000
    MDV= 16105579885 MDiskM=      328644 NBas2p=       30466
 Fully in-core method, ICMem=   960157634.
 IMap=   1   2   3   4   5   6   7   8   9  10  11  12  13  14  15  16
 JobTyp=1 Pass  1 fully in-core, NPsUse= 28.
 Compute canonical integrals.
 FoFCou: FMM=F IPFlag=           0 FMFlag=           0 FMFlg1=           0
         NFxFlg=           0 DoJE=F BraDBF=F KetDBF=F FulRan=T
         wScrn=  0.000000 ICntrl=       600 IOpCl=  1 I1Cent=           0 NGrid=           0
         NMat0=    1 NMatS0=  30762 NMatT0=    0 NMatD0=    1 NMtDS0=    0 NMtDT0=    0
 Symmetry not used in FoFCou.
 Spin components of T(2) and E(2):
     alpha-alpha T2 =       0.3384332304D-01 E2=     -0.1222150191D+00
     alpha-beta  T2 =       0.1858334472D+00 E2=     -0.6991094934D+00
     beta-beta   T2 =       0.3384332304D-01 E2=     -0.1222150191D+00
 The integrals were generated   1 times.
 ANorm=    0.1119607116D+01
 E2 =    -0.9435395317D+00 EUMP2 =    -0.28044661172468D+03
 Leave Link  906 at Mon Feb 14 22:11:32 2022, MaxMem= 16106127360 cpu:             243.2 elap:               8.7
 (Enter /sw/contrib/gaussian/g16/B01/g16/l1002.exe)
 Minotr:  Closed shell wavefunction.
          Computing MP2/KS-MP2 derivatives.
          Using Z-Vector for PSCF gradient.
          Skipping F1 and S1 gradient terms here.
          Frozen-core window.
          Direct CPHF calculation.
          Differentiating once with respect to electric field.
                with respect to dipole field.
          Electric field/nuclear overlap derivatives assumed to be zero.
          Using symmetry in CPHF.
          Requested convergence is 1.0D-10 RMS, and 1.0D-09 maximum.
          NewPWx=F KeepS1=T KeepF1=T KeepIn=T MapXYZ=F SortEE=F KeepMc=T.
 Keep R1 ints in memory in symmetry-blocked form, NReq=348888868.
 FoFCou: FMM=F IPFlag=           0 FMFlag=           0 FMFlg1=           0
         NFxFlg=           0 DoJE=F BraDBF=F KetDBF=F FulRan=T
         wScrn=  0.000000 ICntrl=       600 IOpCl=  0 I1Cent=           0 NGrid=           0
         NMat0=    1 NMatS0=  21528 NMatT0=    0 NMatD0=    1 NMtDS0=    0 NMtDT0=    0
 Petite list used in FoFCou.
          MDV=   16106127360 using IRadAn=       5.
          Solving linear equations separately, MaxMat=       0.
          There are     1 degrees of freedom in the 1st order CPHF.  IDoFFX=0 NUNeed=     1.
 LinEq1:  Iter=  0 NonCon=     1 RMS=5.91D-03 Max=1.29D-01 NDo=     1
 AX will form     1 AO Fock derivatives at one time.
 LinEq1:  Iter=  1 NonCon=     1 RMS=1.87D-03 Max=3.70D-02 NDo=     1
 LinEq1:  Iter=  2 NonCon=     1 RMS=8.51D-04 Max=1.38D-02 NDo=     1
 LinEq1:  Iter=  3 NonCon=     1 RMS=3.76D-04 Max=7.39D-03 NDo=     1
 LinEq1:  Iter=  4 NonCon=     1 RMS=1.16D-04 Max=1.84D-03 NDo=     1
 LinEq1:  Iter=  5 NonCon=     1 RMS=4.27D-05 Max=6.73D-04 NDo=     1
 LinEq1:  Iter=  6 NonCon=     1 RMS=1.91D-05 Max=2.28D-04 NDo=     1
 LinEq1:  Iter=  7 NonCon=     1 RMS=7.65D-06 Max=1.55D-04 NDo=     1
 LinEq1:  Iter=  8 NonCon=     1 RMS=3.27D-06 Max=3.26D-05 NDo=     1
 LinEq1:  Iter=  9 NonCon=     1 RMS=8.93D-07 Max=1.28D-05 NDo=     1
 LinEq1:  Iter= 10 NonCon=     1 RMS=1.76D-07 Max=1.90D-06 NDo=     1
 LinEq1:  Iter= 11 NonCon=     1 RMS=3.30D-08 Max=3.38D-07 NDo=     1
 LinEq1:  Iter= 12 NonCon=     1 RMS=7.90D-09 Max=1.24D-07 NDo=     1
 LinEq1:  Iter= 13 NonCon=     1 RMS=1.42D-09 Max=2.47D-08 NDo=     1
 LinEq1:  Iter= 14 NonCon=     1 RMS=2.58D-10 Max=3.62D-09 NDo=     1
 LinEq1:  Iter= 15 NonCon=     0 RMS=4.74D-11 Max=5.46D-10 NDo=     1
 Linear equations converged to 1.000D-10 1.000D-09 after    15 iterations.
 End of Minotr F.D. properties file   721 does not exist.
 End of Minotr F.D. properties file   722 does not exist.
 End of Minotr F.D. properties file   788 does not exist.
 Leave Link 1002 at Mon Feb 14 22:11:36 2022, MaxMem= 16106127360 cpu:              53.6 elap:               3.9
 (Enter /sw/contrib/gaussian/g16/B01/g16/l601.exe)
 Copying SCF densities to generalized density rwf, IOpCl= 0 IROHF=0.

 **********************************************************************

            Population analysis using the MP2 Density.

 **********************************************************************

 Orbital symmetries:
       Occupied  (A') (A') (A') (A') (A') (A') (A') (A') (A') (A')
                 (A") (A') (A") (A') (A") (A')
       Virtual   (A') (A") (A') (A') (A") (A') (A') (A') (A") (A')
                 (A") (A') (A') (A') (A") (A') (A') (A") (A') (A')
                 (A') (A') (A') (A') (A") (A') (A') (A") (A') (A')
                 (A") (A') (A") (A') (A') (A") (A') (A') (A") (A')
                 (A") (A') (A") (A') (A') (A") (A') (A') (A") (A')
                 (A") (A') (A') (A') (A") (A') (A") (A') (A") (A')
                 (A') (A') (A") (A') (A') (A") (A') (A") (A') (A')
                 (A") (A') (A') (A") (A") (A') (A') (A") (A') (A')
                 (A') (A") (A') (A") (A") (A') (A') (A") (A') (A')
                 (A") (A') (A') (A") (A') (A") (A') (A") (A') (A')
                 (A") (A') (A") (A') (A') (A") (A') (A') (A") (A')
                 (A") (A') (A') (A') (A") (A') (A') (A') (A") (A')
                 (A") (A') (A") (A') (A') (A") (A") (A') (A") (A')
                 (A') (A') (A') (A") (A") (A") (A') (A') (A') (A')
                 (A") (A') (A") (A') (A') (A") (A') (A') (A') (A')
                 (A") (A') (A') (A") (A') (A") (A') (A") (A') (A")
                 (A') (A") (A') (A") (A') (A") (A") (A') (A") (A')
                 (A") (A') (A") (A') (A") (A') (A") (A") (A') (A')
                 (A') (A') (A') (A') (A') (A') (A') (A') (A') (A')
                 (A')
 The electronic state is 1-A'.
 Alpha  occ. eigenvalues --  -20.68879 -20.68467 -20.65884 -15.81154  -1.63135
 Alpha  occ. eigenvalues --   -1.49580  -1.25351  -0.94687  -0.77388  -0.76154
 Alpha  occ. eigenvalues --   -0.71371  -0.68040  -0.62218  -0.58883  -0.48446
 Alpha  occ. eigenvalues --   -0.47076
 Alpha virt. eigenvalues --    0.02987   0.07441   0.08579   0.10172   0.13379
 Alpha virt. eigenvalues --    0.13407   0.14427   0.15475   0.17842   0.19407
 Alpha virt. eigenvalues --    0.20014   0.20637   0.22110   0.23619   0.23744
 Alpha virt. eigenvalues --    0.26615   0.29434   0.30424   0.31088   0.34334
 Alpha virt. eigenvalues --    0.35004   0.38757   0.42242   0.43177   0.52716
 Alpha virt. eigenvalues --    0.53041   0.55898   0.58184   0.63066   0.63799
 Alpha virt. eigenvalues --    0.67172   0.68517   0.70649   0.71138   0.72442
 Alpha virt. eigenvalues --    0.72994   0.74466   0.79204   0.79261   0.81003
 Alpha virt. eigenvalues --    0.81353   0.83296   0.86898   0.90913   0.92278
 Alpha virt. eigenvalues --    0.92714   0.95709   0.97944   0.98540   1.01691
 Alpha virt. eigenvalues --    1.05259   1.05564   1.08427   1.11891   1.14206
 Alpha virt. eigenvalues --    1.19005   1.22205   1.23400   1.33952   1.35104
 Alpha virt. eigenvalues --    1.38768   1.45397   1.48825   1.51011   1.53827
 Alpha virt. eigenvalues --    1.56691   1.57954   1.61393   1.66622   1.67016
 Alpha virt. eigenvalues --    1.70298   1.79361   1.83050   1.83502   1.88072
 Alpha virt. eigenvalues --    1.90985   1.95382   1.99450   2.00574   2.07821
 Alpha virt. eigenvalues --    2.12127   2.13293   2.15089   2.22492   2.26521
 Alpha virt. eigenvalues --    2.26562   2.29041   2.31542   2.34691   2.38695
 Alpha virt. eigenvalues --    2.42648   2.43098   2.45444   2.46402   2.47815
 Alpha virt. eigenvalues --    2.50300   2.59076   2.59850   2.62264   2.62830
 Alpha virt. eigenvalues --    2.63585   2.67039   2.76101   2.82884   2.85916
 Alpha virt. eigenvalues --    2.88856   2.89655   2.92759   2.96033   3.02718
 Alpha virt. eigenvalues --    3.06675   3.12468   3.20550   3.22910   3.31844
 Alpha virt. eigenvalues --    3.34310   3.52092   3.64420   3.83960   3.84719
 Alpha virt. eigenvalues --    4.14984   4.16441   4.18527   4.27891   4.35277
 Alpha virt. eigenvalues --    4.39469   4.46575   4.52115   4.67292   4.71232
 Alpha virt. eigenvalues --    4.80948   4.82665   4.83143   4.89534   5.02188
 Alpha virt. eigenvalues --    5.07835   5.10700   5.13991   5.18180   5.24584
 Alpha virt. eigenvalues --    5.27295   5.30716   5.33113   5.36439   5.60812
 Alpha virt. eigenvalues --    5.68855   5.77831   5.83304   5.95501   6.17101
 Alpha virt. eigenvalues --    6.31049   6.33925   6.39575   6.49363   6.50556
 Alpha virt. eigenvalues --    6.61509   6.66921   6.70324   6.75926   6.76505
 Alpha virt. eigenvalues --    6.83817   6.90163   7.01653   7.05862   7.05914
 Alpha virt. eigenvalues --    7.09149   7.12895   7.15217   7.18289   7.23165
 Alpha virt. eigenvalues --    7.24371   7.31167   7.34190   7.35407   7.40887
 Alpha virt. eigenvalues --    7.43309   7.48572   7.60996   7.63137   7.63947
 Alpha virt. eigenvalues --    7.66860   7.79695   7.90165   8.09699   8.31840
 Alpha virt. eigenvalues --    8.41033   8.54650  13.40736  14.46449  15.16599
 Alpha virt. eigenvalues --   16.42882
          Condensed to atoms (all electrons):
               1          2          3          4          5
     1  H    0.589765   0.128396   0.020045   0.012488  -0.000652
     2  O    0.128396   8.322639  -0.173801  -0.090461   0.015538
     3  O    0.020045  -0.173801   8.477283  -0.133697  -0.040692
     4  N    0.012488  -0.090461  -0.133697   6.975483  -0.056449
     5  O   -0.000652   0.015538  -0.040692  -0.056449   8.273401
 Mulliken charges:
               1
     1  H    0.249957
     2  O   -0.202311
     3  O   -0.149137
     4  N    0.292636
     5  O   -0.191146
 Sum of Mulliken charges =  -0.00000
 Mulliken charges with hydrogens summed into heavy atoms:
               1
     2  O    0.047646
     3  O   -0.149137
     4  N    0.292636
     5  O   -0.191146
 Electronic spatial extent (au):  <R**2>=            252.0683
 Charge=             -0.0000 electrons
 Dipole moment (field-independent basis, Debye):
    X=              0.4743    Y=              1.3214    Z=             -0.0000  Tot=              1.4039
 Quadrupole moment (field-independent basis, Debye-Ang):
   XX=            -22.4217   YY=            -18.6158   ZZ=            -21.9956
   XY=              3.2863   XZ=             -0.0000   YZ=              0.0000
 Traceless Quadrupole moment (field-independent basis, Debye-Ang):
   XX=             -1.4107   YY=              2.3952   ZZ=             -0.9846
   XY=              3.2863   XZ=             -0.0000   YZ=              0.0000
 Octapole moment (field-independent basis, Debye-Ang**2):
  XXX=              2.7898  YYY=             11.0797  ZZZ=             -0.0000  XYY=              7.8284
  XXY=              6.5489  XXZ=             -0.0000  XZZ=             -1.6080  YZZ=             -0.8840
  YYZ=             -0.0000  XYZ=             -0.0000
 Hexadecapole moment (field-independent basis, Debye-Ang**3):
 XXXX=           -158.0963 YYYY=            -89.1426 ZZZZ=            -18.2280 XXXY=            -36.3522
 XXXZ=             -0.0000 YYYX=            -30.4651 YYYZ=              0.0000 ZZZX=             -0.0000
 ZZZY=             -0.0000 XXYY=            -33.7776 XXZZ=            -30.8182 YYZZ=            -20.5400
 XXYZ=             -0.0000 YYXZ=             -0.0000 ZZXY=            -14.9505
 N-N= 1.171425400310D+02 E-N=-8.964193284330D+02  KE= 2.802357284141D+02
 Symmetry A'   KE= 2.662605037272D+02
 Symmetry A"   KE= 1.397522468693D+01
 No NMR shielding tensors so no spin-rotation constants.
 Leave Link  601 at Mon Feb 14 22:11:36 2022, MaxMem= 16106127360 cpu:               4.5 elap:               0.2
 (Enter /sw/contrib/gaussian/g16/B01/g16/l9999.exe)
 1\1\GINC-N2126\SP\RMP2-FC\Aug-CC-pVTZ\H1N1O3\CGAVINH\14-Feb-2022\0\\#p
  SP mp2/aug-cc-pvtz density=current\\title\\0,1\H\O,1,0.96897556\O,2,1
 .45491931,1,97.59494903\N,3,1.45878406,2,102.29752444,1,180.,0\O,4,1.1
 618655626,3,109.06955123,2,180.,0\\Version=ES64L-G16RevB.01\State=1-A'
 \HF=-279.5030722\MP2=-280.4466117\RMSD=3.557e-09\Dipole=-0.1329589,0.,
 -0.5361001\Quadrupole=-1.5123424,-0.7320156,2.244358,0.,2.1078493,0.\P
 G=CS [SG(H1N1O3)]\\@


 TIMES HAVE CHANGED. IN THE BIBLE WHEN AN ASS
 SPOKE IT WAS CONSIDERED A MIRACLE.
 Job cpu time:       0 days  0 hours  6 minutes 23.4 seconds.
 Elapsed time:       0 days  0 hours  0 minutes 17.7 seconds.
 File lengths (MBytes):  RWF=     22 Int=      0 D2E=      0 Chk=      8 Scr=      1
 Normal termination of Gaussian 16 at Mon Feb 14 22:11:36 2022.
