title                                                                   
SP        RMP2-FC                                                     Aug-CC-pVTZ         
Number of atoms                            I                5
Info1-9                                    I   N=           9
          33          24           0           0           0         110
           1           2           1
Full Title                                 C   N=           1
title       
Route                                      C   N=           4
#p SP mp2/aug-cc-pvtz density=current           
Charge                                     I                0
Multiplicity                               I                1
Number of electrons                        I               32
Number of alpha electrons                  I               16
Number of beta electrons                   I               16
Number of basis functions                  I              207
Number of independent functions            I              207
Number of point charges in /Mol/           I                0
Number of translation vectors              I                0
Atomic numbers                             I   N=           5
           1           8           8           7           8
Nuclear charges                            R   N=           5
  1.00000000E+00  8.00000000E+00  8.00000000E+00  7.00000000E+00  8.00000000E+00
Current cartesian coordinates              R   N=          15
  2.98352204E+00  3.12190887E+00 -6.39133309E-32  2.74937323E+00  1.30584285E+00
 -2.71342950E-32 -6.59854390E-17  1.29393147E+00  1.74479644E-32 -4.98720863E-01
 -1.41728327E+00  3.40138630E-33 -2.68593273E+00 -1.74989007E+00  6.60291810E-32
Number of symbols in /Mol/                 I                0
Force Field                                I                0
Atom Types                                 C   N=           5
                                                            
Int Atom Types                             I   N=           5
           0           0           0           0           0
MM charges                                 R   N=           5
  0.00000000E+00  0.00000000E+00  0.00000000E+00  0.00000000E+00  0.00000000E+00
Integer atomic weights                     I   N=           5
           1          16          16          14          16
Real atomic weights                        R   N=           5
  1.00782504E+00  1.59949146E+01  1.59949146E+01  1.40030740E+01  1.59949146E+01
Atom fragment info                         I   N=           5
           0           0           0           0           0
Atom residue num                           I   N=           5
           0           0           0           0           0
Nuclear spins                              I   N=           5
           1           0           0           2           0
Nuclear ZEff                               R   N=           5
 -1.00000000E+00 -5.60000000E+00 -5.60000000E+00 -4.55000000E+00 -5.60000000E+00
Nuclear ZNuc                               R   N=           5
  1.00000000E+00  8.00000000E+00  8.00000000E+00  7.00000000E+00  8.00000000E+00
Nuclear QMom                               R   N=           5
  0.00000000E+00  0.00000000E+00  0.00000000E+00  2.04400000E+00  0.00000000E+00
Nuclear GFac                               R   N=           5
  2.79284600E+00  0.00000000E+00  0.00000000E+00  4.03761000E-01  0.00000000E+00
MicOpt                                     I   N=           5
          -1          -1          -1          -1          -1
Number of residues                         I                0
Number of secondary structures             I                0
SymInf integers                            I   N=          26
           1           2           1           1           1           1
           1          -1           0           0           0           0
           0           0           0           0           0           0
           0           0           0           0           0           0
           0           0
RotTr to input orientation                 R   N=          12
 -9.91790497E-01 -9.93016140E-17 -1.27873417E-01  1.27873417E-01 -7.16713839E-17
 -9.91790497E-01  8.93215323E-17 -1.00000000E+00  8.37810342E-17  2.55981965E+00
  0.00000000E+00  3.47779271E+00
Number of contracted shells                I               65
Number of primitive shells                 I              119
Pure/Cartesian d shells                    I                0
Pure/Cartesian f shells                    I                0
Highest angular momentum                   I                3
Largest degree of contraction              I                7
Shell types                                I   N=          65
           0           0           0           0           1           1
           1          -2          -2           0           0           0
           0           0           1           1           1           1
          -2          -2          -2          -3          -3           0
           0           0           0           0           1           1
           1           1          -2          -2          -2          -3
          -3           0           0           0           0           0
           1           1           1           1          -2          -2
          -2          -3          -3           0           0           0
           0           0           1           1           1           1
          -2          -2          -2          -3          -3
Number of primitives per shell             I   N=          65
           3           1           1           1           1           1
           1           1           1           7           6           1
           1           1           3           1           1           1
           1           1           1           1           1           7
           6           1           1           1           3           1
           1           1           1           1           1           1
           1           7           6           1           1           1
           3           1           1           1           1           1
           1           1           1           7           6           1
           1           1           3           1           1           1
           1           1           1           1           1
Shell to atom map                          I   N=          65
           1           1           1           1           1           1
           1           1           1           2           2           2
           2           2           2           2           2           2
           2           2           2           2           2           3
           3           3           3           3           3           3
           3           3           3           3           3           3
           3           4           4           4           4           4
           4           4           4           4           4           4
           4           4           4           5           5           5
           5           5           5           5           5           5
           5           5           5           5           5
Primitive exponents                        R   N=         119
  3.38700000E+01  5.09500000E+00  1.15900000E+00  3.25800000E-01  1.02700000E-01
  2.52600000E-02  1.40700000E+00  3.88000000E-01  1.02000000E-01  1.05700000E+00
  2.47000000E-01  1.53300000E+04  2.29900000E+03  5.22400000E+02  1.47300000E+02
  4.75500000E+01  1.67600000E+01  6.20700000E+00  5.22400000E+02  1.47300000E+02
  4.75500000E+01  1.67600000E+01  6.20700000E+00  6.88200000E-01  1.75200000E+00
  2.38400000E-01  7.37600000E-02  3.44600000E+01  7.74900000E+00  2.28000000E+00
  7.15600000E-01  2.14000000E-01  5.97400000E-02  2.31400000E+00  6.45000000E-01
  2.14000000E-01  1.42800000E+00  5.00000000E-01  1.53300000E+04  2.29900000E+03
  5.22400000E+02  1.47300000E+02  4.75500000E+01  1.67600000E+01  6.20700000E+00
  5.22400000E+02  1.47300000E+02  4.75500000E+01  1.67600000E+01  6.20700000E+00
  6.88200000E-01  1.75200000E+00  2.38400000E-01  7.37600000E-02  3.44600000E+01
  7.74900000E+00  2.28000000E+00  7.15600000E-01  2.14000000E-01  5.97400000E-02
  2.31400000E+00  6.45000000E-01  2.14000000E-01  1.42800000E+00  5.00000000E-01
  1.14200000E+04  1.71200000E+03  3.89300000E+02  1.10000000E+02  3.55700000E+01
  1.25400000E+01  4.64400000E+00  3.89300000E+02  1.10000000E+02  3.55700000E+01
  1.25400000E+01  4.64400000E+00  5.11800000E-01  1.29300000E+00  1.78700000E-01
  5.76000000E-02  2.66300000E+01  5.94800000E+00  1.74200000E+00  5.55000000E-01
  1.72500000E-01  4.91000000E-02  1.65400000E+00  4.69000000E-01  1.51000000E-01
  1.09300000E+00  3.64000000E-01  1.53300000E+04  2.29900000E+03  5.22400000E+02
  1.47300000E+02  4.75500000E+01  1.67600000E+01  6.20700000E+00  5.22400000E+02
  1.47300000E+02  4.75500000E+01  1.67600000E+01  6.20700000E+00  6.88200000E-01
  1.75200000E+00  2.38400000E-01  7.37600000E-02  3.44600000E+01  7.74900000E+00
  2.28000000E+00  7.15600000E-01  2.14000000E-01  5.97400000E-02  2.31400000E+00
  6.45000000E-01  2.14000000E-01  1.42800000E+00  5.00000000E-01
Contraction coefficients                   R   N=         119
  2.54948632E-02  1.90362766E-01  8.52162022E-01  1.00000000E+00  1.00000000E+00
  1.00000000E+00  1.00000000E+00  1.00000000E+00  1.00000000E+00  1.00000000E+00
  1.00000000E+00  5.19808943E-04  4.02025621E-03  2.07128267E-02  8.10105536E-02
  2.35962985E-01  4.42653446E-01  3.57064423E-01 -4.42115008E-05 -1.22591041E-03
 -1.05517725E-02 -6.74452633E-02 -1.71198607E-01  1.07329856E+00  1.00000000E+00
  1.00000000E+00  1.00000000E+00  4.11634896E-02  2.57762836E-01  8.02419274E-01
  1.00000000E+00  1.00000000E+00  1.00000000E+00  1.00000000E+00  1.00000000E+00
  1.00000000E+00  1.00000000E+00  1.00000000E+00  5.19808943E-04  4.02025621E-03
  2.07128267E-02  8.10105536E-02  2.35962985E-01  4.42653446E-01  3.57064423E-01
 -4.42115008E-05 -1.22591041E-03 -1.05517725E-02 -6.74452633E-02 -1.71198607E-01
  1.07329856E+00  1.00000000E+00  1.00000000E+00  1.00000000E+00  4.11634896E-02
  2.57762836E-01  8.02419274E-01  1.00000000E+00  1.00000000E+00  1.00000000E+00
  1.00000000E+00  1.00000000E+00  1.00000000E+00  1.00000000E+00  1.00000000E+00
  5.34563860E-04  4.13435660E-03  2.12335358E-02  8.25006224E-02  2.38138871E-01
  4.42551547E-01  3.53757422E-01 -4.89867350E-05 -1.19527323E-03 -1.03490714E-02
 -6.48680190E-02 -1.71552477E-01  1.07289568E+00  1.00000000E+00  1.00000000E+00
  1.00000000E+00  3.98072123E-02  2.49002660E-01  8.10479727E-01  1.00000000E+00
  1.00000000E+00  1.00000000E+00  1.00000000E+00  1.00000000E+00  1.00000000E+00
  1.00000000E+00  1.00000000E+00  5.19808943E-04  4.02025621E-03  2.07128267E-02
  8.10105536E-02  2.35962985E-01  4.42653446E-01  3.57064423E-01 -4.42115008E-05
 -1.22591041E-03 -1.05517725E-02 -6.74452633E-02 -1.71198607E-01  1.07329856E+00
  1.00000000E+00  1.00000000E+00  1.00000000E+00  4.11634896E-02  2.57762836E-01
  8.02419274E-01  1.00000000E+00  1.00000000E+00  1.00000000E+00  1.00000000E+00
  1.00000000E+00  1.00000000E+00  1.00000000E+00  1.00000000E+00
Coordinates of each shell                  R   N=         195
  2.98352204E+00  3.12190887E+00  0.00000000E+00  2.98352204E+00  3.12190887E+00
  0.00000000E+00  2.98352204E+00  3.12190887E+00  0.00000000E+00  2.98352204E+00
  3.12190887E+00  0.00000000E+00  2.98352204E+00  3.12190887E+00  0.00000000E+00
  2.98352204E+00  3.12190887E+00  0.00000000E+00  2.98352204E+00  3.12190887E+00
  0.00000000E+00  2.98352204E+00  3.12190887E+00  0.00000000E+00  2.98352204E+00
  3.12190887E+00  0.00000000E+00  2.74937323E+00  1.30584285E+00  0.00000000E+00
  2.74937323E+00  1.30584285E+00  0.00000000E+00  2.74937323E+00  1.30584285E+00
  0.00000000E+00  2.74937323E+00  1.30584285E+00  0.00000000E+00  2.74937323E+00
  1.30584285E+00  0.00000000E+00  2.74937323E+00  1.30584285E+00  0.00000000E+00
  2.74937323E+00  1.30584285E+00  0.00000000E+00  2.74937323E+00  1.30584285E+00
  0.00000000E+00  2.74937323E+00  1.30584285E+00  0.00000000E+00  2.74937323E+00
  1.30584285E+00  0.00000000E+00  2.74937323E+00  1.30584285E+00  0.00000000E+00
  2.74937323E+00  1.30584285E+00  0.00000000E+00  2.74937323E+00  1.30584285E+00
  0.00000000E+00  2.74937323E+00  1.30584285E+00  0.00000000E+00  6.46568892E-18
  1.29393147E+00  0.00000000E+00  6.46568892E-18  1.29393147E+00  0.00000000E+00
  6.46568892E-18  1.29393147E+00  0.00000000E+00  6.46568892E-18  1.29393147E+00
  0.00000000E+00  6.46568892E-18  1.29393147E+00  0.00000000E+00  6.46568892E-18
  1.29393147E+00  0.00000000E+00  6.46568892E-18  1.29393147E+00  0.00000000E+00
  6.46568892E-18  1.29393147E+00  0.00000000E+00  6.46568892E-18  1.29393147E+00
  0.00000000E+00  6.46568892E-18  1.29393147E+00  0.00000000E+00  6.46568892E-18
  1.29393147E+00  0.00000000E+00  6.46568892E-18  1.29393147E+00  0.00000000E+00
  6.46568892E-18  1.29393147E+00  0.00000000E+00  6.46568892E-18  1.29393147E+00
  0.00000000E+00 -4.98720863E-01 -1.41728327E+00  0.00000000E+00 -4.98720863E-01
 -1.41728327E+00  0.00000000E+00 -4.98720863E-01 -1.41728327E+00  0.00000000E+00
 -4.98720863E-01 -1.41728327E+00  0.00000000E+00 -4.98720863E-01 -1.41728327E+00
  0.00000000E+00 -4.98720863E-01 -1.41728327E+00  0.00000000E+00 -4.98720863E-01
 -1.41728327E+00  0.00000000E+00 -4.98720863E-01 -1.41728327E+00  0.00000000E+00
 -4.98720863E-01 -1.41728327E+00  0.00000000E+00 -4.98720863E-01 -1.41728327E+00
  0.00000000E+00 -4.98720863E-01 -1.41728327E+00  0.00000000E+00 -4.98720863E-01
 -1.41728327E+00  0.00000000E+00 -4.98720863E-01 -1.41728327E+00  0.00000000E+00
 -4.98720863E-01 -1.41728327E+00  0.00000000E+00 -2.68593273E+00 -1.74989007E+00
  0.00000000E+00 -2.68593273E+00 -1.74989007E+00  0.00000000E+00 -2.68593273E+00
 -1.74989007E+00  0.00000000E+00 -2.68593273E+00 -1.74989007E+00  0.00000000E+00
 -2.68593273E+00 -1.74989007E+00  0.00000000E+00 -2.68593273E+00 -1.74989007E+00
  0.00000000E+00 -2.68593273E+00 -1.74989007E+00  0.00000000E+00 -2.68593273E+00
 -1.74989007E+00  0.00000000E+00 -2.68593273E+00 -1.74989007E+00  0.00000000E+00
 -2.68593273E+00 -1.74989007E+00  0.00000000E+00 -2.68593273E+00 -1.74989007E+00
  0.00000000E+00 -2.68593273E+00 -1.74989007E+00  0.00000000E+00 -2.68593273E+00
 -1.74989007E+00  0.00000000E+00 -2.68593273E+00 -1.74989007E+00  0.00000000E+00
Num ILSW                                   I              100
ILSW                                       I   N=         100
           0           0           0           0           2           0
           0           0           0           0           0          -1
           5           0           0           0           0           0
           0           0           0           0           0           0
           1           0           0           0           0           0
           0           0      100000           0          -1           0
           0           0           0           0           0           0
           0           0           0           1           0           0
           0 -2000000000           1           0           0           0
           0           0           4          52           0           0
           0           0           0           0           0           0
           0           0           0           5           0           1
           0           0           0           0           0           0
           0           0           0           0           0           0
           0           0           0           0           0           0
           0           0           0           0           0           0
           0           0           0           0
Num RLSW                                   I               52
RLSW                                       R   N=          52
  1.00000000E+00  1.00000000E+00  1.00000000E+00  1.00000000E+00  1.00000000E+00
  0.00000000E+00  0.00000000E+00  1.00000000E+00  0.00000000E+00  0.00000000E+00
  0.00000000E+00  0.00000000E+00  1.00000000E+00  0.00000000E+00  0.00000000E+00
  0.00000000E+00  0.00000000E+00  1.00000000E+00  0.00000000E+00  0.00000000E+00
  0.00000000E+00  0.00000000E+00  1.00000000E+00  0.00000000E+00  0.00000000E+00
  0.00000000E+00  0.00000000E+00  1.00000000E+00  0.00000000E+00  0.00000000E+00
  0.00000000E+00  0.00000000E+00  1.00000000E+00  0.00000000E+00  0.00000000E+00
  0.00000000E+00  0.00000000E+00  0.00000000E+00  1.00000000E+00  1.00000000E+00
  0.00000000E+00  1.00000000E+00  0.00000000E+00  0.00000000E+00  0.00000000E+00
  0.00000000E+00  0.00000000E+00  0.00000000E+00  0.00000000E+00  0.00000000E+00
  0.00000000E+00  0.00000000E+00
MxBond                                     I                2
NBond                                      I   N=           5
           1           2           2           2           1
IBond                                      I   N=          10
           2           0           1           3           2           4
           3           5           4           0
RBond                                      R   N=          10
  1.00000000E+00  0.00000000E+00  1.00000000E+00  1.00000000E+00  1.00000000E+00
  1.00000000E+00  1.00000000E+00  2.00000000E+00  2.00000000E+00  0.00000000E+00
Virial Ratio                               R      2.002316766406605E+00
SCF Energy                                 R     -2.795014132928259E+02
MP2 Energy                                 R     -2.804466193919149E+02
Total Energy                               R     -2.804466193919149E+02
Post-SCF wavefunction norm                 R      1.120226978710682E+00
RMS Density                                R      3.778244728977255E-09
Job Status                                 I                1
Nuclear derivative order                   I                0
External E-field                           R   N=          35
  0.00000000E+00  0.00000000E+00  0.00000000E+00  0.00000000E+00  0.00000000E+00
  0.00000000E+00  0.00000000E+00  0.00000000E+00  0.00000000E+00  0.00000000E+00
  0.00000000E+00  0.00000000E+00  0.00000000E+00  0.00000000E+00  0.00000000E+00
  0.00000000E+00  0.00000000E+00  0.00000000E+00  0.00000000E+00  0.00000000E+00
  0.00000000E+00  0.00000000E+00  0.00000000E+00  0.00000000E+00  0.00000000E+00
  0.00000000E+00  0.00000000E+00  0.00000000E+00  0.00000000E+00  0.00000000E+00
  0.00000000E+00  0.00000000E+00  0.00000000E+00  0.00000000E+00  0.00000000E+00
IOpCl                                      I                0
IROHF                                      I                0
Alpha Orbital Energies                     R   N=         207
 -2.06912777E+01 -2.06839322E+01 -2.06594293E+01 -1.58123360E+01 -1.62409560E+00
 -1.49621579E+00 -1.25360202E+00 -9.48409107E-01 -7.74080170E-01 -7.58497727E-01
 -7.12036398E-01 -6.76792687E-01 -6.20001406E-01 -5.90622996E-01 -4.85350020E-01
 -4.72834193E-01  2.96195417E-02  7.18713274E-02  8.59140542E-02  1.01280430E-01
  1.34097090E-01  1.34139016E-01  1.44276479E-01  1.55035252E-01  1.78185052E-01
  1.93971254E-01  1.99650104E-01  2.06397041E-01  2.21066715E-01  2.35533952E-01
  2.37521092E-01  2.64929517E-01  2.93150217E-01  3.04805110E-01  3.10170478E-01
  3.43069856E-01  3.50263284E-01  3.87967381E-01  4.21390474E-01  4.30603479E-01
  5.27088013E-01  5.30476835E-01  5.60711748E-01  5.84152318E-01  6.26227976E-01
  6.36919601E-01  6.74165906E-01  6.84331407E-01  7.05431075E-01  7.12302502E-01
  7.23741972E-01  7.30339179E-01  7.44731414E-01  7.89746366E-01  7.91905894E-01
  8.09511013E-01  8.12934916E-01  8.32164528E-01  8.68253857E-01  9.07410462E-01
  9.22799730E-01  9.25826756E-01  9.59175616E-01  9.83331242E-01  9.86056599E-01
  1.01654070E+00  1.05315989E+00  1.05358846E+00  1.08692196E+00  1.12163496E+00
  1.14416470E+00  1.18773544E+00  1.22229779E+00  1.23108739E+00  1.33750122E+00
  1.34919989E+00  1.38813766E+00  1.45244032E+00  1.48750630E+00  1.50886452E+00
  1.54004851E+00  1.56842698E+00  1.58085466E+00  1.61580240E+00  1.66553476E+00
  1.66953524E+00  1.70323925E+00  1.79256643E+00  1.82757988E+00  1.83269476E+00
  1.87973540E+00  1.91280213E+00  1.95897104E+00  1.99362647E+00  2.00613277E+00
  2.07672507E+00  2.11726648E+00  2.13087513E+00  2.15044992E+00  2.22505062E+00
  2.26373233E+00  2.26537850E+00  2.28790887E+00  2.31742598E+00  2.35323660E+00
  2.38819056E+00  2.42722878E+00  2.42861417E+00  2.45335522E+00  2.46443533E+00
  2.47710973E+00  2.50743466E+00  2.59006791E+00  2.59480186E+00  2.61864629E+00
  2.62714990E+00  2.63098209E+00  2.67067770E+00  2.76212117E+00  2.83146397E+00
  2.86825536E+00  2.89180347E+00  2.89669505E+00  2.92217947E+00  2.95587619E+00
  3.03490785E+00  3.07255213E+00  3.12594010E+00  3.20695486E+00  3.23217807E+00
  3.31491990E+00  3.33323787E+00  3.50504434E+00  3.65318586E+00  3.84025067E+00
  3.84466679E+00  4.15080674E+00  4.16211153E+00  4.18563480E+00  4.26183156E+00
  4.34689423E+00  4.39661974E+00  4.46398113E+00  4.51772286E+00  4.67196437E+00
  4.71167276E+00  4.80988094E+00  4.82338464E+00  4.83008755E+00  4.89726008E+00
  5.02164490E+00  5.07705859E+00  5.10099079E+00  5.13943882E+00  5.18495011E+00
  5.24715292E+00  5.27115630E+00  5.30836286E+00  5.33432062E+00  5.36462548E+00
  5.61953519E+00  5.67397236E+00  5.77271236E+00  5.82884355E+00  5.95744949E+00
  6.17448665E+00  6.30870472E+00  6.33647390E+00  6.39295371E+00  6.49290359E+00
  6.50405852E+00  6.61690335E+00  6.66494146E+00  6.69760466E+00  6.76310287E+00
  6.76364616E+00  6.83431100E+00  6.89606997E+00  7.00940428E+00  7.05139077E+00
  7.05792310E+00  7.09037752E+00  7.12637409E+00  7.15257200E+00  7.18291672E+00
  7.22250900E+00  7.24405786E+00  7.31035375E+00  7.32459460E+00  7.35675125E+00
  7.40302936E+00  7.42900426E+00  7.48737063E+00  7.60271983E+00  7.61767175E+00
  7.63542030E+00  7.67052125E+00  7.79489946E+00  7.89538901E+00  8.08727146E+00
  8.31589537E+00  8.40932986E+00  8.54346525E+00  1.34048319E+01  1.43607901E+01
  1.51817793E+01  1.61560470E+01
Alpha MO coefficients                      R   N=       42849
  9.08726411E-05 -6.11262627E-04 -7.11065220E-04 -2.76351083E-06 -2.02574119E-05
 -2.67216370E-05  0.00000000E+00 -4.73024882E-05  5.25965174E-05  0.00000000E+00
  8.13205467E-05  3.08731055E-05  0.00000000E+00  3.11961058E-05  0.00000000E+00
  0.00000000E+00 -4.86487631E-05  2.40684583E-05 -5.75119047E-06  0.00000000E+00
  0.00000000E+00 -1.28473137E-04  1.24993776E-04  4.44915823E-03 -2.83058780E-04
  1.09454350E-05  1.48356618E-03  1.80571552E-03  1.04903379E-04  4.41505433E-06
  0.00000000E+00 -6.06902299E-04 -1.82019365E-05  0.00000000E+00 -1.04825563E-03
  7.99146873E-04  0.00000000E+00 -3.96043599E-04  7.43241854E-05  0.00000000E+00
  2.89210396E-05  0.00000000E+00  0.00000000E+00 -5.35291290E-05  8.92398450E-06
 -3.75174095E-04  0.00000000E+00  0.00000000E+00  7.33232320E-04 -7.72291803E-05
 -4.42987329E-04  0.00000000E+00  0.00000000E+00  2.33109929E-04 -2.43661192E-05
  0.00000000E+00  7.97817714E-05  1.02006109E-05  0.00000000E+00  0.00000000E+00
 -1.10061092E-04  6.20279889E-06  0.00000000E+00  2.55672536E-04 -3.35666306E-05
  0.00000000E+00  0.00000000E+00 -3.41460190E-04  8.14272918E-05  9.76912818E-01
 -9.22656816E-03  4.33135175E-02  2.10080210E-03 -9.13193568E-04  1.47114627E-03
 -1.38018732E-03  0.00000000E+00 -1.42133261E-03  1.41760731E-03  0.00000000E+00
  9.94056676E-05 -1.15730745E-03  0.00000000E+00 -1.29352938E-04 -1.04677584E-05
  0.00000000E+00  4.86153699E-05  0.00000000E+00  0.00000000E+00 -3.57348152E-05
  1.83255853E-05  7.41036261E-04  0.00000000E+00  0.00000000E+00 -2.38024887E-04
 -3.47185864E-04 -3.61376861E-04  0.00000000E+00  0.00000000E+00 -3.17716910E-04
 -3.73543080E-04  0.00000000E+00  4.74494097E-05 -5.03466277E-05  0.00000000E+00
  0.00000000E+00 -3.92584878E-05 -1.30231692E-05  0.00000000E+00  2.19301448E-05
  2.10714857E-05  0.00000000E+00  0.00000000E+00 -3.02094227E-04 -1.17999751E-04
  3.80039967E-05  4.05518664E-05 -2.61830398E-04 -7.29100893E-04 -1.46978860E-04
 -2.65344310E-05 -9.62888904E-05  0.00000000E+00  2.57293781E-04  6.91878877E-04
  0.00000000E+00 -8.10554629E-04 -4.76075342E-04  0.00000000E+00 -1.29276471E-04
 -2.83582347E-05  0.00000000E+00 -1.75756524E-05  0.00000000E+00  0.00000000E+00
 -2.84150396E-05  1.50328593E-05 -3.27499465E-04  0.00000000E+00  0.00000000E+00
 -8.22630974E-04  1.27393772E-04 -3.68200119E-05  0.00000000E+00  0.00000000E+00
  9.20003251E-05 -1.11163493E-04  0.00000000E+00 -2.00627865E-05 -1.19566595E-04
  0.00000000E+00  0.00000000E+00 -6.52829586E-05 -1.37884300E-04  0.00000000E+00
 -3.11467432E-06 -1.57942078E-04  0.00000000E+00  0.00000000E+00  4.37950775E-05
 -4.07783449E-04 -2.33615577E-03  1.19523814E-04 -1.11296348E-04 -2.24251291E-04
  1.40774184E-04 -7.38444391E-06 -2.65946637E-05  0.00000000E+00  6.78091180E-05
  1.55989769E-04  0.00000000E+00  2.32359063E-04  2.08288877E-04  0.00000000E+00
  1.27894998E-04  2.86299927E-05  0.00000000E+00 -3.12996600E-06  0.00000000E+00
  0.00000000E+00 -1.77703707E-05  1.28165553E-06  1.35557198E-06  0.00000000E+00
  0.00000000E+00  7.81647579E-05  8.44789664E-05 -9.90476756E-05  0.00000000E+00
  0.00000000E+00  1.59655585E-04  1.64921141E-04  0.00000000E+00  1.60163014E-05
 -3.31978629E-06  0.00000000E+00  0.00000000E+00 -4.10541574E-06 -1.22274696E-05
  0.00000000E+00 -3.31712209E-05  4.48262629E-05  0.00000000E+00  0.00000000E+00
  8.02502597E-05  8.95200841E-05  4.17412773E-05 -9.97632536E-04 -4.70079527E-04
 -1.25279258E-05 -2.18749364E-05  1.53483454E-05  0.00000000E+00  5.99627863E-06
  2.70465920E-04  0.00000000E+00 -4.90898027E-05  1.28207606E-04  0.00000000E+00
  2.65796773E-05  0.00000000E+00  0.00000000E+00  1.11570848E-05  9.90120623E-06
 -3.23443808E-05  0.00000000E+00  0.00000000E+00  1.53367266E-05  3.86970057E-05
  1.11879166E-04  9.53431256E-05 -2.83605918E-05  7.13420339E-04  5.88820152E-04
  1.03090174E-05  2.23958994E-06  0.00000000E+00 -7.74953514E-05  1.33535903E-05
  0.00000000E+00  3.99946654E-04  9.47065394E-04  0.00000000E+00  2.49324849E-05
  9.10348338E-05  0.00000000E+00 -2.89706597E-06  0.00000000E+00  0.00000000E+00
 -2.13099407E-07 -4.06694871E-06 -3.30552174E-05  0.00000000E+00  0.00000000E+00
 -1.30261629E-05  7.37371398E-05 -1.74053379E-05  0.00000000E+00  0.00000000E+00
 -2.82275587E-04 -1.76411506E-04  0.00000000E+00  9.14472416E-06  6.06829322E-06
  0.00000000E+00  0.00000000E+00  2.41903750E-06 -1.81642332E-05  0.00000000E+00
 -4.25252092E-05 -3.99314148E-05  0.00000000E+00  0.00000000E+00 -8.05136761E-05
  3.62034060E-05  2.37464442E-03  4.00672514E-05  8.11093778E-05 -7.10983286E-05
 -4.49871483E-04  7.22204790E-06  1.56691939E-05  0.00000000E+00 -6.25390453E-05
 -5.22017424E-05  0.00000000E+00  2.37036251E-04 -2.20933626E-04  0.00000000E+00
 -1.71754706E-04 -5.95126855E-05  0.00000000E+00 -8.74394258E-06  0.00000000E+00
  0.00000000E+00  2.22843719E-05  2.04916729E-05  4.92599320E-06  0.00000000E+00
  0.00000000E+00 -1.16992656E-04 -4.95196563E-05 -6.87292620E-06  0.00000000E+00
  0.00000000E+00 -2.23862843E-04 -2.26627217E-04  0.00000000E+00  3.19580801E-06
 -1.34461464E-06  0.00000000E+00  0.00000000E+00  1.65277745E-06 -1.26040069E-05
  0.00000000E+00 -4.59369906E-05  6.90055193E-06  0.00000000E+00  0.00000000E+00
 -7.46018282E-05  1.79800124E-04  2.58619368E-04  1.46422333E-03 -7.79163111E-05
 -1.51872449E-03  4.31165263E-04 -1.44215275E-04  5.75245158E-07  0.00000000E+00
 -2.10016708E-03 -4.05274337E-04  0.00000000E+00  1.09135852E-03  7.92095530E-04
  0.00000000E+00 -1.71428912E-04  6.10477597E-05  0.00000000E+00 -1.23133779E-04
  0.00000000E+00  0.00000000E+00  2.43440522E-04  9.25371020E-05 -4.44558472E-04
  0.00000000E+00  0.00000000E+00  8.99406211E-04 -6.30374409E-05  8.57541735E-06
  0.00000000E+00  0.00000000E+00 -3.46099720E-04 -1.12577790E-04  0.00000000E+00
 -2.36470364E-07  1.58380895E-05  0.00000000E+00  0.00000000E+00  1.76512216E-05
  1.14362416E-05  0.00000000E+00  1.57732461E-04 -7.48077156E-05  0.00000000E+00
  0.00000000E+00 -2.38767431E-04  5.06817964E-05  9.76649537E-01 -9.84523387E-03
  4.35705522E-02  4.52301739E-03 -4.54230797E-04  2.14743979E-03  4.74200566E-04
  0.00000000E+00 -2.38449486E-03 -5.98845706E-04  0.00000000E+00  1.13095354E-03
 -8.34141575E-06  0.00000000E+00  1.78200801E-06 -3.96615054E-05  0.00000000E+00
 -2.32980939E-04  0.00000000E+00  0.00000000E+00  1.02525736E-04  3.21941242E-05
  3.90948995E-04  0.00000000E+00  0.00000000E+00 -8.38422198E-04 -4.16526085E-04
 -1.48651392E-04  0.00000000E+00  0.00000000E+00  2.50144087E-04  1.15539440E-05
  0.00000000E+00  5.22758440E-05  1.73604698E-05  0.00000000E+00  0.00000000E+00
 -2.26330337E-05 -1.28943844E-05  0.00000000E+00  1.39569078E-04  9.78133124E-06
  0.00000000E+00  0.00000000E+00 -1.91370474E-04 -1.40143357E-04  4.78933242E-04
  2.15879959E-03  1.49234517E-04  1.49653550E-05 -4.69864157E-05 -2.49143249E-04
  0.00000000E+00  6.64908508E-05 -1.30723865E-03  0.00000000E+00  2.70926660E-04
 -3.61142277E-04  0.00000000E+00 -3.91230188E-06  0.00000000E+00  0.00000000E+00
  7.49695464E-05  9.23072685E-06 -1.58546168E-04  0.00000000E+00  0.00000000E+00
 -5.38652886E-04  1.12756664E-05  9.76828920E-01 -9.16696021E-03  4.34536713E-02
  8.75309889E-05 -1.07179388E-03 -1.51012254E-03  1.49392867E-03  0.00000000E+00
  1.52579819E-03 -1.33932836E-03  0.00000000E+00 -6.06392254E-04 -9.72143940E-04
  0.00000000E+00  5.36221974E-05 -4.17078842E-06  0.00000000E+00  2.84860836E-05
  0.00000000E+00  0.00000000E+00 -1.19294063E-04  6.56709503E-06  7.62975758E-04
  0.00000000E+00  0.00000000E+00 -2.03535039E-04 -2.26622720E-04 -2.64373688E-04
  0.00000000E+00  0.00000000E+00  1.81090687E-04  1.51539019E-04  0.00000000E+00
 -6.34936375E-05  1.92476372E-06  0.00000000E+00  0.00000000E+00  1.78654838E-05
  8.53525533E-06  0.00000000E+00  3.12195786E-06  1.31427248E-04  0.00000000E+00
  0.00000000E+00  2.72897922E-04  7.08451951E-05 -4.54228280E-03 -2.12758616E-04