 Entering Gaussian System, Link 0=g16
 Input=hoono_r3_1p435454.gjf
 Output=hoono_r3_1p435454.log
 Initial command:
 /sw/contrib/gaussian/g16/B01/g16/l1.exe "/scr/Gau-16201.inp" -scrdir="/scr/"
 Entering Link 1 = /sw/contrib/gaussian/g16/B01/g16/l1.exe PID=     16202.
  
 Copyright (c) 1988-2017, Gaussian, Inc.  All Rights Reserved.
  
 This is part of the Gaussian(R) 16 program.  It is based on
 the Gaussian(R) 09 system (copyright 2009, Gaussian, Inc.),
 the Gaussian(R) 03 system (copyright 2003, Gaussian, Inc.),
 the Gaussian(R) 98 system (copyright 1998, Gaussian, Inc.),
 the Gaussian(R) 94 system (copyright 1995, Gaussian, Inc.),
 the Gaussian 92(TM) system (copyright 1992, Gaussian, Inc.),
 the Gaussian 90(TM) system (copyright 1990, Gaussian, Inc.),
 the Gaussian 88(TM) system (copyright 1988, Gaussian, Inc.),
 the Gaussian 86(TM) system (copyright 1986, Carnegie Mellon
 University), and the Gaussian 82(TM) system (copyright 1983,
 Carnegie Mellon University). Gaussian is a federally registered
 trademark of Gaussian, Inc.
  
 This software contains proprietary and confidential information,
 including trade secrets, belonging to Gaussian, Inc.
  
 This software is provided under written license and may be
 used, copied, transmitted, or stored only in accord with that
 written license.
  
 The following legend is applicable only to US Government
 contracts under FAR:
  
                    RESTRICTED RIGHTS LEGEND
  
 Use, reproduction and disclosure by the US Government is
 subject to restrictions as set forth in subparagraphs (a)
 and (c) of the Commercial Computer Software - Restricted
 Rights clause in FAR 52.227-19.
  
 Gaussian, Inc.
 340 Quinnipiac St., Bldg. 40, Wallingford CT 06492
  
  
 ---------------------------------------------------------------
 Warning -- This program may not be used in any manner that
 competes with the business of Gaussian, Inc. or will provide
 assistance to any competitor of Gaussian, Inc.  The licensee
 of this program is prohibited from giving any competitor of
 Gaussian, Inc. access to this program.  By using this program,
 the user acknowledges that Gaussian, Inc. is engaged in the
 business of creating and licensing software in the field of
 computational chemistry and represents and warrants to the
 licensee that it is not a competitor of Gaussian, Inc. and that
 it will not use this program in any manner prohibited above.
 ---------------------------------------------------------------
  

 Cite this work as:
 Gaussian 16, Revision B.01,
 M. J. Frisch, G. W. Trucks, H. B. Schlegel, G. E. Scuseria, 
 M. A. Robb, J. R. Cheeseman, G. Scalmani, V. Barone, 
 G. A. Petersson, H. Nakatsuji, X. Li, M. Caricato, A. V. Marenich, 
 J. Bloino, B. G. Janesko, R. Gomperts, B. Mennucci, H. P. Hratchian, 
 J. V. Ortiz, A. F. Izmaylov, J. L. Sonnenberg, D. Williams-Young, 
 F. Ding, F. Lipparini, F. Egidi, J. Goings, B. Peng, A. Petrone, 
 T. Henderson, D. Ranasinghe, V. G. Zakrzewski, J. Gao, N. Rega, 
 G. Zheng, W. Liang, M. Hada, M. Ehara, K. Toyota, R. Fukuda, 
 J. Hasegawa, M. Ishida, T. Nakajima, Y. Honda, O. Kitao, H. Nakai, 
 T. Vreven, K. Throssell, J. A. Montgomery, Jr., J. E. Peralta, 
 F. Ogliaro, M. J. Bearpark, J. J. Heyd, E. N. Brothers, K. N. Kudin, 
 V. N. Staroverov, T. A. Keith, R. Kobayashi, J. Normand, 
 K. Raghavachari, A. P. Rendell, J. C. Burant, S. S. Iyengar, 
 J. Tomasi, M. Cossi, J. M. Millam, M. Klene, C. Adamo, R. Cammi, 
 J. W. Ochterski, R. L. Martin, K. Morokuma, O. Farkas, 
 J. B. Foresman, and D. J. Fox, Gaussian, Inc., Wallingford CT, 2016.
 
 ******************************************
 Gaussian 16:  ES64L-G16RevB.01 20-Dec-2017
                14-Feb-2022 
 ******************************************
 %nproc=28
 Will use up to   28 processors via shared memory.
 %mem=120GB
 %chk=hoono_r3_1p435454.chk
 -------------------------------------
 #p SP mp2/aug-cc-pvtz density=current
 -------------------------------------
 1/30=1,38=1,172=1/1;
 2/12=2,17=6,18=5,40=1/2;
 3/5=16,6=1,7=10,11=9,25=1,30=1,71=1/1,2,3;
 4//1;
 5/5=2,38=5/2;
 8/6=4,10=1/1;
 9/15=1,16=-3/6;
 10/5=1,13=10/2;
 6/7=2,8=2,9=2,10=2,22=-1/1;
 99/5=1,9=1/99;
 Leave Link    1 at Mon Feb 14 22:10:41 2022, MaxMem= 16106127360 cpu:               2.5 elap:               0.1
 (Enter /sw/contrib/gaussian/g16/B01/g16/l101.exe)
 -----
 title
 -----
 Symbolic Z-matrix:
 Charge =  0 Multiplicity = 1
 H
 O                    1    r1
 O                    2    r2       1    a1
 N                    3    r3       2    a2       1    d1       0
 O                    4    r4       3    a3       2    d2       0
       Variables:
  r1                    0.96898                  
  r2                    1.45492                  
  r3                    1.43545                  
  r4                    1.17073                  
  a1                   97.59495                  
  a2                  102.29752                  
  a3                  109.06955                  
  d1                  180.                       
  d2                  180.                       
 
 ITRead=  0  0  0  0  0
 MicOpt= -1 -1 -1 -1 -1
 NAtoms=      5 NQM=        5 NQMF=       0 NMMI=      0 NMMIF=      0
                NMic=       0 NMicF=      0.
                    Isotopes and Nuclear Properties:
 (Nuclear quadrupole moments (NQMom) in fm**2, nuclear magnetic moments (NMagM)
  in nuclear magnetons)

  Atom         1           2           3           4           5
 IAtWgt=           1          16          16          14          16
 AtmWgt=   1.0078250  15.9949146  15.9949146  14.0030740  15.9949146
 NucSpn=           1           0           0           2           0
 AtZEff=  -0.0000000  -0.0000000  -0.0000000  -0.0000000  -0.0000000
 NQMom=    0.0000000   0.0000000   0.0000000   2.0440000   0.0000000
 NMagM=    2.7928460   0.0000000   0.0000000   0.4037610   0.0000000
 AtZNuc=   1.0000000   8.0000000   8.0000000   7.0000000   8.0000000
 Leave Link  101 at Mon Feb 14 22:10:41 2022, MaxMem= 16106127360 cpu:               2.5 elap:               0.1
 (Enter /sw/contrib/gaussian/g16/B01/g16/l202.exe)
                          Input orientation:                          
 ---------------------------------------------------------------------
 Center     Atomic      Atomic             Coordinates (Angstroms)
 Number     Number       Type             X           Y           Z
 ---------------------------------------------------------------------
      1          1           0        0.000000    0.000000    0.000000
      2          8           0        0.000000    0.000000    0.968976
      3          8           0        1.442156    0.000000    1.161271
      4          7           0        1.559839    0.000000    2.591893
      5          8           0        2.693955    0.000000    2.882388
 ---------------------------------------------------------------------
                    Distance matrix (angstroms):
                    1          2          3          4          5
     1  H    0.000000
     2  O    0.968976   0.000000
     3  O    1.851584   1.454919   0.000000
     4  N    3.025063   2.250990   1.435454   0.000000
     5  O    3.945320   3.304321   2.128202   1.170729   0.000000
 Stoichiometry    HNO3
 Framework group  CS[SG(HNO3)]
 Deg. of freedom     7
 Full point group                 CS      NOp   2
 Largest Abelian subgroup         CS      NOp   2
 Largest concise Abelian subgroup C1      NOp   1
                         Standard orientation:                         
 ---------------------------------------------------------------------
 Center     Atomic      Atomic             Coordinates (Angstroms)
 Number     Number       Type             X           Y           Z
 ---------------------------------------------------------------------
      1          1           0        1.552109    1.671868    0.000000
      2          8           0        1.454205    0.707851    0.000000
      3          8           0        0.000000    0.662253    0.000000
      4          7           0       -0.261629   -0.749157   -0.000000
      5          8           0       -1.419293   -0.923575   -0.000000
 ---------------------------------------------------------------------
 Rotational constants (GHZ):          55.9721251           5.0705627           4.6493721
 Leave Link  202 at Mon Feb 14 22:10:41 2022, MaxMem= 16106127360 cpu:               0.3 elap:               0.0
 (Enter /sw/contrib/gaussian/g16/B01/g16/l301.exe)
 Standard basis: Aug-CC-pVTZ (5D, 7F)
 Ernie: Thresh=  0.10000D-02 Tol=  0.10000D-05 Strict=F.
 Ernie:  12 primitive shells out of 131 were deleted.
 There are   166 symmetry adapted cartesian basis functions of A'  symmetry.
 There are    79 symmetry adapted cartesian basis functions of A"  symmetry.
 There are   136 symmetry adapted basis functions of A'  symmetry.
 There are    71 symmetry adapted basis functions of A"  symmetry.
   207 basis functions,   315 primitive gaussians,   245 cartesian basis functions
    16 alpha electrons       16 beta electrons
       nuclear repulsion energy       117.5151904781 Hartrees.
 IExCor=    0 DFT=F Ex=HF Corr=None ExCW=0 ScaHFX=  1.000000
 ScaDFX=  1.000000  1.000000  1.000000  1.000000 ScalE2=  1.000000  1.000000
 IRadAn=      5 IRanWt=     -1 IRanGd=            0 ICorTp=0 IEmpDi=  4
 NAtoms=    5 NActive=    5 NUniq=    5 SFac= 1.00D+00 NAtFMM=   60 NAOKFM=F Big=F
 Integral buffers will be    131072 words long.
 Raffenetti 1 integral format.
 Two-electron integral symmetry is turned on.
 Leave Link  301 at Mon Feb 14 22:10:41 2022, MaxMem= 16106127360 cpu:               2.3 elap:               0.1
 (Enter /sw/contrib/gaussian/g16/B01/g16/l302.exe)
 NPDir=0 NMtPBC=     1 NCelOv=     1 NCel=       1 NClECP=     1 NCelD=      1
         NCelK=      1 NCelE2=     1 NClLst=     1 CellRange=     0.0.
 One-electron integrals computed using PRISM.
 One-electron integral symmetry used in STVInt
 NBasis=   207 RedAO= T EigKep=  1.79D-04  NBF=   136    71
 NBsUse=   207 1.00D-06 EigRej= -1.00D+00 NBFU=   136    71
 Leave Link  302 at Mon Feb 14 22:10:42 2022, MaxMem= 16106127360 cpu:               4.6 elap:               0.2
 (Enter /sw/contrib/gaussian/g16/B01/g16/l303.exe)
 DipDrv:  MaxL=1.
 Leave Link  303 at Mon Feb 14 22:10:42 2022, MaxMem= 16106127360 cpu:               0.8 elap:               0.1
 (Enter /sw/contrib/gaussian/g16/B01/g16/l401.exe)
 ExpMin= 2.53D-02 ExpMax= 1.53D+04 ExpMxC= 5.22D+02 IAcc=3 IRadAn=         5 AccDes= 0.00D+00
 Harris functional with IExCor=  205 and IRadAn=       5 diagonalized for initial guess.
 HarFok:  IExCor=  205 AccDes= 0.00D+00 IRadAn=         5 IDoV= 1 UseB2=F ITyADJ=14
 ICtDFT=  3500011 ScaDFX=  1.000000  1.000000  1.000000  1.000000
 FoFCou: FMM=F IPFlag=           0 FMFlag=      100000 FMFlg1=           0
         NFxFlg=           0 DoJE=T BraDBF=F KetDBF=T FulRan=T
         wScrn=  0.000000 ICntrl=       500 IOpCl=  0 I1Cent=   200000004 NGrid=           0
         NMat0=    1 NMatS0=      1 NMatT0=    0 NMatD0=    1 NMtDS0=    0 NMtDT0=    0
 Petite list used in FoFCou.
 Harris En= -279.629554766691    
 JPrj=0 DoOrth=F DoCkMO=F.
 Initial guess orbital symmetries:
       Occupied  (A') (A') (A') (A') (A') (A') (A') (A') (A') (A')
                 (A") (A') (A') (A") (A") (A')
       Virtual   (A") (A') (A') (A') (A') (A') (A") (A') (A') (A')
                 (A") (A') (A") (A') (A') (A") (A') (A") (A') (A')
                 (A') (A') (A') (A') (A') (A") (A') (A") (A') (A')
                 (A") (A') (A") (A') (A') (A") (A') (A") (A') (A')
                 (A") (A') (A") (A') (A") (A') (A') (A') (A") (A")
                 (A') (A') (A') (A') (A") (A') (A") (A') (A") (A')
                 (A') (A') (A") (A') (A') (A") (A') (A") (A') (A')
                 (A") (A') (A') (A") (A") (A') (A') (A") (A') (A')
                 (A') (A") (A') (A") (A') (A") (A') (A") (A') (A')
                 (A') (A") (A') (A") (A') (A") (A") (A') (A") (A')
                 (A') (A') (A") (A') (A') (A') (A") (A') (A") (A')
                 (A") (A') (A') (A') (A") (A') (A') (A') (A") (A')
                 (A") (A') (A') (A") (A") (A') (A') (A") (A") (A')
                 (A') (A') (A') (A") (A") (A') (A") (A') (A') (A')
                 (A') (A") (A") (A') (A') (A") (A') (A') (A') (A')
                 (A") (A') (A') (A") (A') (A") (A') (A") (A') (A")
                 (A') (A") (A') (A") (A') (A") (A") (A") (A') (A')
                 (A") (A') (A") (A') (A") (A') (A") (A") (A') (A')
                 (A') (A') (A') (A') (A') (A') (A') (A') (A') (A')
                 (A')
 The electronic state of the initial guess is 1-A'.
 Leave Link  401 at Mon Feb 14 22:10:42 2022, MaxMem= 16106127360 cpu:               9.3 elap:               0.4
 (Enter /sw/contrib/gaussian/g16/B01/g16/l502.exe)
 Keep R1 ints in memory in symmetry-blocked form, NReq=348887737.
 FoFCou: FMM=F IPFlag=           0 FMFlag=           0 FMFlg1=           0
         NFxFlg=           0 DoJE=F BraDBF=F KetDBF=F FulRan=T
         wScrn=  0.000000 ICntrl=       600 IOpCl=  0 I1Cent=           0 NGrid=           0
         NMat0=    1 NMatS0=  21528 NMatT0=    0 NMatD0=    1 NMtDS0=    0 NMtDT0=    0
 Petite list used in FoFCou.
 Closed shell SCF:
 Using DIIS extrapolation, IDIIS=  1040.
 NGot= 16106127360 LenX= 15988850015 LenY= 15988789549
 Requested convergence on RMS density matrix=1.00D-08 within 128 cycles.
 Requested convergence on MAX density matrix=1.00D-06.
 Requested convergence on             energy=1.00D-06.
 No special actions if energy rises.

 Cycle   1  Pass 1  IDiag  1:
 E= -279.369946361919    
 DIIS: error= 2.58D-02 at cycle   1 NSaved=   1.
 NSaved= 1 IEnMin= 1 EnMin= -279.369946361919     IErMin= 1 ErrMin= 2.58D-02
 ErrMax= 2.58D-02  0.00D+00 EMaxC= 1.00D-01 BMatC= 4.42D-01 BMatP= 4.42D-01
 IDIUse=3 WtCom= 7.42D-01 WtEn= 2.58D-01
 Coeff-Com:  0.100D+01
 Coeff-En:   0.100D+01
 Coeff:      0.100D+01
 Gap=     0.521 Goal=   None    Shift=    0.000
 GapD=    0.521 DampG=2.000 DampE=0.500 DampFc=1.0000 IDamp=-1.
 RMSDP=1.64D-03 MaxDP=9.75D-02              OVMax= 1.17D-01

 Cycle   2  Pass 1  IDiag  1:
 E= -279.451594457248     Delta-E=       -0.081648095329 Rises=F Damp=F
 DIIS: error= 1.79D-02 at cycle   2 NSaved=   2.
 NSaved= 2 IEnMin= 2 EnMin= -279.451594457248     IErMin= 2 ErrMin= 1.79D-02
 ErrMax= 1.79D-02  0.00D+00 EMaxC= 1.00D-01 BMatC= 7.67D-02 BMatP= 4.42D-01
 IDIUse=3 WtCom= 8.21D-01 WtEn= 1.79D-01
 Coeff-Com:  0.203D+00 0.797D+00
 Coeff-En:   0.251D-01 0.975D+00
 Coeff:      0.171D+00 0.829D+00
 Gap=     0.533 Goal=   None    Shift=    0.000
 RMSDP=9.18D-04 MaxDP=3.79D-02 DE=-8.16D-02 OVMax= 6.70D-02

 Cycle   3  Pass 1  IDiag  1:
 E= -279.483543484857     Delta-E=       -0.031949027609 Rises=F Damp=F
 DIIS: error= 9.83D-03 at cycle   3 NSaved=   3.
 NSaved= 3 IEnMin= 3 EnMin= -279.483543484857     IErMin= 3 ErrMin= 9.83D-03
 ErrMax= 9.83D-03  0.00D+00 EMaxC= 1.00D-01 BMatC= 2.88D-02 BMatP= 7.67D-02
 IDIUse=3 WtCom= 9.02D-01 WtEn= 9.83D-02
 Coeff-Com: -0.336D-01 0.370D+00 0.663D+00
 Coeff-En:   0.000D+00 0.228D+00 0.772D+00
 Coeff:     -0.303D-01 0.356D+00 0.674D+00
 Gap=     0.510 Goal=   None    Shift=    0.000
 RMSDP=3.78D-04 MaxDP=1.49D-02 DE=-3.19D-02 OVMax= 4.01D-02

 Cycle   4  Pass 1  IDiag  1:
 E= -279.502768465993     Delta-E=       -0.019224981137 Rises=F Damp=F
 DIIS: error= 1.26D-03 at cycle   4 NSaved=   4.
 NSaved= 4 IEnMin= 4 EnMin= -279.502768465993     IErMin= 4 ErrMin= 1.26D-03
 ErrMax= 1.26D-03  0.00D+00 EMaxC= 1.00D-01 BMatC= 4.69D-04 BMatP= 2.88D-02
 IDIUse=3 WtCom= 9.87D-01 WtEn= 1.26D-02
 Coeff-Com: -0.111D-01 0.490D-01 0.148D+00 0.814D+00
 Coeff-En:   0.000D+00 0.000D+00 0.000D+00 0.100D+01
 Coeff:     -0.110D-01 0.484D-01 0.146D+00 0.816D+00
 Gap=     0.502 Goal=   None    Shift=    0.000
 RMSDP=9.00D-05 MaxDP=2.69D-03 DE=-1.92D-02 OVMax= 1.07D-02

 Cycle   5  Pass 1  IDiag  1:
 E= -279.503420787188     Delta-E=       -0.000652321194 Rises=F Damp=F
 DIIS: error= 6.94D-04 at cycle   5 NSaved=   5.
 NSaved= 5 IEnMin= 5 EnMin= -279.503420787188     IErMin= 5 ErrMin= 6.94D-04
 ErrMax= 6.94D-04  0.00D+00 EMaxC= 1.00D-01 BMatC= 8.30D-05 BMatP= 4.69D-04
 IDIUse=3 WtCom= 9.93D-01 WtEn= 6.94D-03
 Coeff-Com:  0.597D-02-0.690D-01-0.114D+00 0.284D-01 0.115D+01
 Coeff-En:   0.000D+00 0.000D+00 0.000D+00 0.000D+00 0.100D+01
 Coeff:      0.593D-02-0.685D-01-0.113D+00 0.282D-01 0.115D+01
 Gap=     0.502 Goal=   None    Shift=    0.000
 RMSDP=7.33D-05 MaxDP=2.05D-03 DE=-6.52D-04 OVMax= 1.08D-02

 Cycle   6  Pass 1  IDiag  1:
 E= -279.503713319637     Delta-E=       -0.000292532450 Rises=F Damp=F
 DIIS: error= 2.85D-04 at cycle   6 NSaved=   6.
 NSaved= 6 IEnMin= 6 EnMin= -279.503713319637     IErMin= 6 ErrMin= 2.85D-04
 ErrMax= 2.85D-04  0.00D+00 EMaxC= 1.00D-01 BMatC= 1.60D-05 BMatP= 8.30D-05
 IDIUse=3 WtCom= 9.97D-01 WtEn= 2.85D-03
 Coeff-Com:  0.526D-03 0.224D-02 0.523D-02-0.136D+00-0.219D+00 0.135D+01
 Coeff-En:   0.000D+00 0.000D+00 0.000D+00 0.000D+00 0.000D+00 0.100D+01
 Coeff:      0.525D-03 0.223D-02 0.521D-02-0.135D+00-0.218D+00 0.135D+01
 Gap=     0.502 Goal=   None    Shift=    0.000
 RMSDP=4.33D-05 MaxDP=1.18D-03 DE=-2.93D-04 OVMax= 5.39D-03

 Cycle   7  Pass 1  IDiag  1:
 E= -279.503780221574     Delta-E=       -0.000066901937 Rises=F Damp=F
 DIIS: error= 1.06D-04 at cycle   7 NSaved=   7.
 NSaved= 7 IEnMin= 7 EnMin= -279.503780221574     IErMin= 7 ErrMin= 1.06D-04
 ErrMax= 1.06D-04  0.00D+00 EMaxC= 1.00D-01 BMatC= 3.96D-06 BMatP= 1.60D-05
 IDIUse=3 WtCom= 9.99D-01 WtEn= 1.06D-03
 Coeff-Com: -0.910D-03 0.126D-01 0.250D-01-0.231D-01-0.268D+00 0.345D+00
 Coeff-Com:  0.909D+00
 Coeff-En:   0.000D+00 0.000D+00 0.000D+00 0.000D+00 0.000D+00 0.000D+00
 Coeff-En:   0.100D+01
 Coeff:     -0.909D-03 0.126D-01 0.250D-01-0.231D-01-0.268D+00 0.345D+00
 Coeff:      0.909D+00
 Gap=     0.502 Goal=   None    Shift=    0.000
 RMSDP=1.26D-05 MaxDP=3.58D-04 DE=-6.69D-05 OVMax= 1.50D-03

 Cycle   8  Pass 1  IDiag  1:
 E= -279.503788195747     Delta-E=       -0.000007974172 Rises=F Damp=F
 DIIS: error= 5.63D-05 at cycle   8 NSaved=   8.
 NSaved= 8 IEnMin= 8 EnMin= -279.503788195747     IErMin= 8 ErrMin= 5.63D-05
 ErrMax= 5.63D-05  0.00D+00 EMaxC= 1.00D-01 BMatC= 5.58D-07 BMatP= 3.96D-06
 IDIUse=1 WtCom= 1.00D+00 WtEn= 0.00D+00
 Coeff-Com: -0.418D-03 0.312D-02 0.704D-02 0.268D-01-0.416D-01-0.192D+00
 Coeff-Com:  0.198D+00 0.999D+00
 Coeff:     -0.418D-03 0.312D-02 0.704D-02 0.268D-01-0.416D-01-0.192D+00
 Coeff:      0.198D+00 0.999D+00
 Gap=     0.502 Goal=   None    Shift=    0.000
 RMSDP=6.26D-06 MaxDP=1.90D-04 DE=-7.97D-06 OVMax= 6.71D-04

 Cycle   9  Pass 1  IDiag  1:
 E= -279.503789745373     Delta-E=       -0.000001549627 Rises=F Damp=F
 DIIS: error= 1.60D-05 at cycle   9 NSaved=   9.
 NSaved= 9 IEnMin= 9 EnMin= -279.503789745373     IErMin= 9 ErrMin= 1.60D-05
 ErrMax= 1.60D-05  0.00D+00 EMaxC= 1.00D-01 BMatC= 6.85D-08 BMatP= 5.58D-07
 IDIUse=1 WtCom= 1.00D+00 WtEn= 0.00D+00
 Coeff-Com:  0.111D-03-0.158D-02-0.283D-02-0.106D-02 0.331D-01-0.492D-02
 Coeff-Com: -0.174D+00-0.647D-01 0.122D+01
 Coeff:      0.111D-03-0.158D-02-0.283D-02-0.106D-02 0.331D-01-0.492D-02
 Coeff:     -0.174D+00-0.647D-01 0.122D+01
 Gap=     0.502 Goal=   None    Shift=    0.000
 RMSDP=1.87D-06 MaxDP=6.41D-05 DE=-1.55D-06 OVMax= 1.74D-04

 Cycle  10  Pass 1  IDiag  1:
 E= -279.503789899698     Delta-E=       -0.000000154325 Rises=F Damp=F
 DIIS: error= 4.21D-06 at cycle  10 NSaved=  10.
 NSaved=10 IEnMin=10 EnMin= -279.503789899698     IErMin=10 ErrMin= 4.21D-06
 ErrMax= 4.21D-06  0.00D+00 EMaxC= 1.00D-01 BMatC= 5.68D-09 BMatP= 6.85D-08
 IDIUse=1 WtCom= 1.00D+00 WtEn= 0.00D+00
 Coeff-Com:  0.334D-04-0.265D-03-0.379D-03-0.288D-02 0.237D-02 0.208D-01
 Coeff-Com: -0.191D-01-0.781D-01-0.695D-01 0.115D+01
 Coeff:      0.334D-04-0.265D-03-0.379D-03-0.288D-02 0.237D-02 0.208D-01
 Coeff:     -0.191D-01-0.781D-01-0.695D-01 0.115D+01
 Gap=     0.502 Goal=   None    Shift=    0.000
 RMSDP=5.15D-07 MaxDP=2.15D-05 DE=-1.54D-07 OVMax= 4.46D-05

 Cycle  11  Pass 1  IDiag  1:
 E= -279.503789912820     Delta-E=       -0.000000013122 Rises=F Damp=F
 DIIS: error= 2.02D-06 at cycle  11 NSaved=  11.
 NSaved=11 IEnMin=11 EnMin= -279.503789912820     IErMin=11 ErrMin= 2.02D-06
 ErrMax= 2.02D-06  0.00D+00 EMaxC= 1.00D-01 BMatC= 6.79D-10 BMatP= 5.68D-09
 IDIUse=1 WtCom= 1.00D+00 WtEn= 0.00D+00
 Coeff-Com: -0.212D-04 0.239D-03 0.482D-03 0.527D-03-0.446D-02-0.352D-02
 Coeff-Com:  0.234D-01 0.298D-01-0.140D+00-0.202D+00 0.130D+01
 Coeff:     -0.212D-04 0.239D-03 0.482D-03 0.527D-03-0.446D-02-0.352D-02
 Coeff:      0.234D-01 0.298D-01-0.140D+00-0.202D+00 0.130D+01
 Gap=     0.502 Goal=   None    Shift=    0.000
 RMSDP=1.85D-07 MaxDP=6.99D-06 DE=-1.31D-08 OVMax= 1.74D-05

 Cycle  12  Pass 1  IDiag  1:
 E= -279.503789914705     Delta-E=       -0.000000001885 Rises=F Damp=F
 DIIS: error= 5.57D-07 at cycle  12 NSaved=  12.
 NSaved=12 IEnMin=12 EnMin= -279.503789914705     IErMin=12 ErrMin= 5.57D-07
 ErrMax= 5.57D-07  0.00D+00 EMaxC= 1.00D-01 BMatC= 6.67D-11 BMatP= 6.79D-10
 IDIUse=1 WtCom= 1.00D+00 WtEn= 0.00D+00
 Coeff-Com:  0.101D-05-0.259D-04-0.566D-04 0.210D-03 0.101D-02-0.235D-02
 Coeff-Com: -0.399D-02 0.610D-02 0.406D-01-0.104D+00-0.285D+00 0.135D+01
 Coeff:      0.101D-05-0.259D-04-0.566D-04 0.210D-03 0.101D-02-0.235D-02
 Coeff:     -0.399D-02 0.610D-02 0.406D-01-0.104D+00-0.285D+00 0.135D+01
 Gap=     0.502 Goal=   None    Shift=    0.000
 RMSDP=7.07D-08 MaxDP=2.80D-06 DE=-1.89D-09 OVMax= 6.26D-06

 Cycle  13  Pass 1  IDiag  1:
 E= -279.503789914919     Delta-E=       -0.000000000214 Rises=F Damp=F
 DIIS: error= 1.58D-07 at cycle  13 NSaved=  13.
 NSaved=13 IEnMin=13 EnMin= -279.503789914919     IErMin=13 ErrMin= 1.58D-07
 ErrMax= 1.58D-07  0.00D+00 EMaxC= 1.00D-01 BMatC= 3.40D-12 BMatP= 6.67D-11
 IDIUse=1 WtCom= 1.00D+00 WtEn= 0.00D+00
 Coeff-Com:  0.123D-05-0.132D-04-0.219D-04-0.859D-04 0.138D-03 0.707D-03
 Coeff-Com: -0.979D-03-0.301D-02 0.704D-03 0.375D-01-0.324D-01-0.302D+00
 Coeff-Com:  0.130D+01
 Coeff:      0.123D-05-0.132D-04-0.219D-04-0.859D-04 0.138D-03 0.707D-03
 Coeff:     -0.979D-03-0.301D-02 0.704D-03 0.375D-01-0.324D-01-0.302D+00
 Coeff:      0.130D+01
 Gap=     0.502 Goal=   None    Shift=    0.000
 RMSDP=1.77D-08 MaxDP=4.86D-07 DE=-2.14D-10 OVMax= 1.44D-06

 Cycle  14  Pass 1  IDiag  1:
 E= -279.503789914930     Delta-E=       -0.000000000011 Rises=F Damp=F
 DIIS: error= 2.14D-08 at cycle  14 NSaved=  14.
 NSaved=14 IEnMin=14 EnMin= -279.503789914930     IErMin=14 ErrMin= 2.14D-08
 ErrMax= 2.14D-08  0.00D+00 EMaxC= 1.00D-01 BMatC= 1.62D-13 BMatP= 3.40D-12
 IDIUse=1 WtCom= 1.00D+00 WtEn= 0.00D+00
 Coeff-Com: -0.164D-06 0.271D-05 0.486D-05 0.302D-05-0.759D-04 0.467D-04
 Coeff-Com:  0.286D-03 0.164D-03-0.227D-02 0.112D-02 0.161D-01-0.260D-01
 Coeff-Com: -0.190D+00 0.120D+01
 Coeff:     -0.164D-06 0.271D-05 0.486D-05 0.302D-05-0.759D-04 0.467D-04
 Coeff:      0.286D-03 0.164D-03-0.227D-02 0.112D-02 0.161D-01-0.260D-01
 Coeff:     -0.190D+00 0.120D+01
 Gap=     0.502 Goal=   None    Shift=    0.000
 RMSDP=3.49D-09 MaxDP=8.75D-08 DE=-1.10D-11 OVMax= 3.13D-07

 SCF Done:  E(RHF) =  -279.503789915     A.U. after   14 cycles
            NFock= 14  Conv=0.35D-08     -V/T= 2.0022
 KE= 2.788847701044D+02 PE=-8.963635970926D+02 EE= 2.204598465952D+02
 Leave Link  502 at Mon Feb 14 22:10:46 2022, MaxMem= 16106127360 cpu:              55.4 elap:               3.6
 (Enter /sw/contrib/gaussian/g16/B01/g16/l801.exe)
 ExpMin= 2.53D-02 ExpMax= 1.53D+04 ExpMxC= 5.22D+02 IAcc=3 IRadAn=         5 AccDes= 0.00D+00
 HarFok:  IExCor=  205 AccDes= 0.00D+00 IRadAn=         5 IDoV=-2 UseB2=F ITyADJ=14
 ICtDFT= 12500011 ScaDFX=  1.000000  1.000000  1.000000  1.000000
 Largest valence mixing into a core orbital is  2.07D-04
 Largest core mixing into a valence orbital is  3.55D-05
 Range of M.O.s used for correlation:     5   207
 NBasis=   207 NAE=    16 NBE=    16 NFC=     4 NFV=     0
 NROrb=    203 NOA=    12 NOB=    12 NVA=   191 NVB=   191

 **** Warning!!: The largest alpha MO coefficient is  0.17963627D+02

 Leave Link  801 at Mon Feb 14 22:10:46 2022, MaxMem= 16106127360 cpu:               2.4 elap:               0.1
 (Enter /sw/contrib/gaussian/g16/B01/g16/l906.exe)
 Frozen-core derivative calculation, NFC=   4 NFV=   0.
 FulOut=F Deriv=T AODrv=F NAtomX=     5
   MMem=          76  MDisk=          12 MDiskD=          12
  W3Min=      811440 MinDsk=     1524655 NBas6D=         245
 NBas2D=       30762    NTT=       30135    LW2=     3500000
    MDV= 16105579815 MDiskM=      328644 NBas2p=       30466
 Fully in-core method, ICMem=   960157634.
 IMap=   1   2   3   4   5   6   7   8   9  10  11  12  13  14  15  16
 JobTyp=1 Pass  1 fully in-core, NPsUse= 28.
 Compute canonical integrals.
 FoFCou: FMM=F IPFlag=           0 FMFlag=           0 FMFlg1=           0
         NFxFlg=           0 DoJE=F BraDBF=F KetDBF=F FulRan=T
         wScrn=  0.000000 ICntrl=       600 IOpCl=  1 I1Cent=           0 NGrid=           0
         NMat0=    1 NMatS0=  30762 NMatT0=    0 NMatD0=    1 NMtDS0=    0 NMtDT0=    0
 Symmetry not used in FoFCou.
 Spin components of T(2) and E(2):
     alpha-alpha T2 =       0.3374848805D-01 E2=     -0.1221466095D+00
     alpha-beta  T2 =       0.1852348635D+00 E2=     -0.6985344795D+00
     beta-beta   T2 =       0.3374848805D-01 E2=     -0.1221466095D+00
 The integrals were generated   1 times.
 ANorm=    0.1119255038D+01
 E2 =    -0.9428276984D+00 EUMP2 =    -0.28044661761334D+03
 Leave Link  906 at Mon Feb 14 22:10:55 2022, MaxMem= 16106127360 cpu:             245.3 elap:               8.8
 (Enter /sw/contrib/gaussian/g16/B01/g16/l1002.exe)
 Minotr:  Closed shell wavefunction.
          Computing MP2/KS-MP2 derivatives.
          Using Z-Vector for PSCF gradient.
          Skipping F1 and S1 gradient terms here.
          Frozen-core window.
          Direct CPHF calculation.
          Differentiating once with respect to electric field.
                with respect to dipole field.
          Electric field/nuclear overlap derivatives assumed to be zero.
          Using symmetry in CPHF.
          Requested convergence is 1.0D-10 RMS, and 1.0D-09 maximum.
          NewPWx=F KeepS1=T KeepF1=T KeepIn=T MapXYZ=F SortEE=F KeepMc=T.
 Keep R1 ints in memory in symmetry-blocked form, NReq=348888868.
 FoFCou: FMM=F IPFlag=           0 FMFlag=           0 FMFlg1=           0
         NFxFlg=           0 DoJE=F BraDBF=F KetDBF=F FulRan=T
         wScrn=  0.000000 ICntrl=       600 IOpCl=  0 I1Cent=           0 NGrid=           0
         NMat0=    1 NMatS0=  21528 NMatT0=    0 NMatD0=    1 NMtDS0=    0 NMtDT0=    0
 Petite list used in FoFCou.
          MDV=   16106127360 using IRadAn=       5.
          Solving linear equations separately, MaxMat=       0.
          There are     1 degrees of freedom in the 1st order CPHF.  IDoFFX=0 NUNeed=     1.
 LinEq1:  Iter=  0 NonCon=     1 RMS=5.87D-03 Max=1.33D-01 NDo=     1
 AX will form     1 AO Fock derivatives at one time.
 LinEq1:  Iter=  1 NonCon=     1 RMS=1.84D-03 Max=3.64D-02 NDo=     1
 LinEq1:  Iter=  2 NonCon=     1 RMS=8.34D-04 Max=1.16D-02 NDo=     1
 LinEq1:  Iter=  3 NonCon=     1 RMS=3.70D-04 Max=7.78D-03 NDo=     1
 LinEq1:  Iter=  4 NonCon=     1 RMS=1.14D-04 Max=1.53D-03 NDo=     1
 LinEq1:  Iter=  5 NonCon=     1 RMS=4.39D-05 Max=7.00D-04 NDo=     1
 LinEq1:  Iter=  6 NonCon=     1 RMS=1.97D-05 Max=2.24D-04 NDo=     1
 LinEq1:  Iter=  7 NonCon=     1 RMS=7.78D-06 Max=1.44D-04 NDo=     1
 LinEq1:  Iter=  8 NonCon=     1 RMS=3.33D-06 Max=3.07D-05 NDo=     1
 LinEq1:  Iter=  9 NonCon=     1 RMS=9.00D-07 Max=1.16D-05 NDo=     1
 LinEq1:  Iter= 10 NonCon=     1 RMS=1.73D-07 Max=1.77D-06 NDo=     1
 LinEq1:  Iter= 11 NonCon=     1 RMS=3.15D-08 Max=3.15D-07 NDo=     1
 LinEq1:  Iter= 12 NonCon=     1 RMS=7.58D-09 Max=1.14D-07 NDo=     1
 LinEq1:  Iter= 13 NonCon=     1 RMS=1.39D-09 Max=2.27D-08 NDo=     1
 LinEq1:  Iter= 14 NonCon=     1 RMS=2.48D-10 Max=3.22D-09 NDo=     1
 LinEq1:  Iter= 15 NonCon=     0 RMS=4.49D-11 Max=4.68D-10 NDo=     1
 Linear equations converged to 1.000D-10 1.000D-09 after    15 iterations.
 End of Minotr F.D. properties file   721 does not exist.
 End of Minotr F.D. properties file   722 does not exist.
 End of Minotr F.D. properties file   788 does not exist.
 Leave Link 1002 at Mon Feb 14 22:10:59 2022, MaxMem= 16106127360 cpu:              54.6 elap:               4.0
 (Enter /sw/contrib/gaussian/g16/B01/g16/l601.exe)
 Copying SCF densities to generalized density rwf, IOpCl= 0 IROHF=0.

 **********************************************************************

            Population analysis using the MP2 Density.

 **********************************************************************

 Orbital symmetries:
       Occupied  (A') (A') (A') (A') (A') (A') (A') (A') (A') (A')
                 (A") (A') (A") (A') (A") (A')
       Virtual   (A') (A") (A') (A') (A') (A") (A') (A') (A") (A')
                 (A") (A') (A') (A') (A") (A') (A') (A") (A') (A')
                 (A') (A') (A') (A') (A") (A') (A') (A") (A') (A')
                 (A") (A') (A") (A') (A') (A") (A') (A") (A') (A")
                 (A') (A') (A") (A') (A') (A") (A') (A') (A") (A')
                 (A") (A') (A') (A') (A") (A') (A") (A') (A") (A')
                 (A') (A') (A") (A') (A') (A") (A') (A") (A') (A')
                 (A") (A') (A') (A") (A") (A') (A') (A") (A') (A')
                 (A') (A") (A') (A") (A") (A') (A') (A") (A') (A')
                 (A") (A') (A') (A") (A') (A") (A') (A") (A') (A')
                 (A") (A') (A") (A') (A') (A') (A") (A') (A") (A')
                 (A") (A') (A') (A') (A") (A') (A') (A') (A") (A')
                 (A") (A') (A") (A') (A') (A") (A") (A') (A") (A')
                 (A') (A') (A') (A") (A") (A") (A') (A') (A') (A')
                 (A") (A') (A") (A') (A') (A") (A') (A') (A') (A')
                 (A") (A') (A') (A") (A') (A") (A') (A") (A') (A")
                 (A') (A") (A') (A") (A') (A") (A") (A') (A") (A')
                 (A") (A') (A") (A') (A") (A') (A") (A") (A') (A')
                 (A') (A') (A') (A') (A') (A') (A') (A') (A') (A')
                 (A')
 The electronic state is 1-A'.
 Alpha  occ. eigenvalues --  -20.69483 -20.67872 -20.66283 -15.80910  -1.62566
 Alpha  occ. eigenvalues --   -1.49889  -1.26147  -0.94640  -0.77470  -0.76204
 Alpha  occ. eigenvalues --   -0.71601  -0.67817  -0.61922  -0.59062  -0.48756
 Alpha  occ. eigenvalues --   -0.47334
 Alpha virt. eigenvalues --    0.02899   0.07469   0.08635   0.10197   0.13375
 Alpha virt. eigenvalues --    0.13406   0.14361   0.15407   0.17774   0.19420
 Alpha virt. eigenvalues --    0.19993   0.20918   0.22010   0.23438   0.23767
 Alpha virt. eigenvalues --    0.26614   0.30121   0.30338   0.31314   0.34518
 Alpha virt. eigenvalues --    0.35083   0.38854   0.42112   0.43088   0.52845
 Alpha virt. eigenvalues --    0.53022   0.56112   0.58290   0.62764   0.63968
 Alpha virt. eigenvalues --    0.67512   0.68437   0.70550   0.71062   0.72386
 Alpha virt. eigenvalues --    0.72783   0.74391   0.79121   0.79307   0.81111
 Alpha virt. eigenvalues --    0.81125   0.83179   0.86996   0.90838   0.92107
 Alpha virt. eigenvalues --    0.92804   0.95439   0.98079   0.98372   1.01457
 Alpha virt. eigenvalues --    1.05309   1.05597   1.08458   1.11944   1.14363
 Alpha virt. eigenvalues --    1.19071   1.22140   1.23330   1.34152   1.35484
 Alpha virt. eigenvalues --    1.38356   1.45705   1.48792   1.50786   1.53955
 Alpha virt. eigenvalues --    1.56964   1.58431   1.61445   1.66574   1.67006
 Alpha virt. eigenvalues --    1.70547   1.79331   1.83257   1.83874   1.87778
 Alpha virt. eigenvalues --    1.91301   1.95636   1.99687   2.00768   2.08531
 Alpha virt. eigenvalues --    2.12349   2.13529   2.14674   2.22901   2.26295
 Alpha virt. eigenvalues --    2.26464   2.29365   2.31501   2.34994   2.38595
 Alpha virt. eigenvalues --    2.42780   2.43416   2.45736   2.46570   2.48044
 Alpha virt. eigenvalues --    2.50490   2.58741   2.59853   2.62647   2.62676
 Alpha virt. eigenvalues --    2.63281   2.67042   2.76145   2.83505   2.86586
 Alpha virt. eigenvalues --    2.89261   2.89286   2.94303   2.95920   3.03418
 Alpha virt. eigenvalues --    3.07702   3.12928   3.20125   3.23239   3.32084
 Alpha virt. eigenvalues --    3.34856   3.52067   3.65225   3.84949   3.85069
 Alpha virt. eigenvalues --    4.14882   4.15828   4.18760   4.26810   4.35147
 Alpha virt. eigenvalues --    4.39421   4.46203   4.52206   4.67026   4.71361
 Alpha virt. eigenvalues --    4.80949   4.82575   4.84347   4.89806   5.03104
 Alpha virt. eigenvalues --    5.08451   5.11173   5.14374   5.18559   5.24873
 Alpha virt. eigenvalues --    5.28029   5.31333   5.33220   5.36500   5.61142
 Alpha virt. eigenvalues --    5.67789   5.78286   5.82750   5.96343   6.17870
 Alpha virt. eigenvalues --    6.30911   6.34753   6.40008   6.49914   6.51043
 Alpha virt. eigenvalues --    6.61468   6.66680   6.70842   6.75545   6.76300
 Alpha virt. eigenvalues --    6.83901   6.90629   7.01987   7.05498   7.06043
 Alpha virt. eigenvalues --    7.08985   7.13163   7.15634   7.18258   7.23541
 Alpha virt. eigenvalues --    7.24023   7.30329   7.32923   7.35364   7.40642
 Alpha virt. eigenvalues --    7.44237   7.49086   7.61226   7.62790   7.64726
 Alpha virt. eigenvalues --    7.67999   7.79827   7.89375   8.12106   8.32469
 Alpha virt. eigenvalues --    8.40905   8.55579  13.45674  14.52544  15.18229
 Alpha virt. eigenvalues --   16.19956
          Condensed to atoms (all electrons):
               1          2          3          4          5
     1  H    0.589136   0.128239   0.020234   0.012577  -0.000632
     2  O    0.128239   8.321982  -0.171658  -0.094692   0.016126
     3  O    0.020234  -0.171658   8.463380  -0.136630  -0.043542
     4  N    0.012577  -0.094692  -0.136630   6.992882  -0.058885
     5  O   -0.000632   0.016126  -0.043542  -0.058885   8.290349
 Mulliken charges:
               1
     1  H    0.250446
     2  O   -0.199997
     3  O   -0.131783
     4  N    0.284750
     5  O   -0.203416
 Sum of Mulliken charges =  -0.00000
 Mulliken charges with hydrogens summed into heavy atoms:
               1
     2  O    0.050449
     3  O   -0.131783
     4  N    0.284750
     5  O   -0.203416
 Electronic spatial extent (au):  <R**2>=            250.4878
 Charge=             -0.0000 electrons
 Dipole moment (field-independent basis, Debye):
    X=              0.6150    Y=              1.4938    Z=              0.0000  Tot=              1.6154
 Quadrupole moment (field-independent basis, Debye-Ang):
   XX=            -22.5094   YY=            -18.7141   ZZ=            -21.9767
   XY=              3.2118   XZ=              0.0000   YZ=             -0.0000
 Traceless Quadrupole moment (field-independent basis, Debye-Ang):
   XX=             -1.4427   YY=              2.3526   ZZ=             -0.9100
   XY=              3.2118   XZ=              0.0000   YZ=             -0.0000
 Octapole moment (field-independent basis, Debye-Ang**2):
  XXX=              3.3197  YYY=             11.3366  ZZZ=             -0.0000  XYY=              7.9456
  XXY=              6.7676  XXZ=              0.0000  XZZ=             -1.5387  YZZ=             -0.7652
  YYZ=              0.0000  XYZ=              0.0000
 Hexadecapole moment (field-independent basis, Debye-Ang**3):
 XXXX=           -158.5781 YYYY=            -87.4631 ZZZZ=            -18.1727 XXXY=            -35.9254
 XXXZ=              0.0000 YYYX=            -30.3547 YYYZ=             -0.0000 ZZZX=             -0.0000
 ZZZY=             -0.0000 XXYY=            -33.6839 XXZZ=            -30.8857 YYZZ=            -20.1792
 XXYZ=             -0.0000 YYXZ=             -0.0000 ZZXY=            -14.8069
 N-N= 1.175151904781D+02 E-N=-8.971282001009D+02  KE= 2.802276478717D+02
 Symmetry A'   KE= 2.662478535293D+02
 Symmetry A"   KE= 1.397979434243D+01
 No NMR shielding tensors so no spin-rotation constants.
 Leave Link  601 at Mon Feb 14 22:10:59 2022, MaxMem= 16106127360 cpu:               4.7 elap:               0.2
 (Enter /sw/contrib/gaussian/g16/B01/g16/l9999.exe)
 1\1\GINC-N2126\SP\RMP2-FC\Aug-CC-pVTZ\H1N1O3\CGAVINH\14-Feb-2022\0\\#p
  SP mp2/aug-cc-pvtz density=current\\title\\0,1\H\O,1,0.96897556\O,2,1
 .45491931,1,97.59494903\N,3,1.435454127,2,102.29752444,1,180.,0\O,4,1.
 17072885,3,109.06955123,2,180.,0\\Version=ES64L-G16RevB.01\State=1-A'\
 HF=-279.5037899\MP2=-280.4466176\RMSD=3.494e-09\Dipole=-0.1813383,0.,-
 0.609148\Quadrupole=-1.5238483,-0.6765331,2.2003814,0.,2.0554966,0.\PG
 =CS [SG(H1N1O3)]\\@


 HOW IS IT THAT THE SKY FEEDS THE STARS?

                           -- LUCRETIUS
 Job cpu time:       0 days  0 hours  6 minutes 25.7 seconds.
 Elapsed time:       0 days  0 hours  0 minutes 17.8 seconds.
 File lengths (MBytes):  RWF=     22 Int=      0 D2E=      0 Chk=      8 Scr=      1
 Normal termination of Gaussian 16 at Mon Feb 14 22:10:59 2022.
