title                                                                   
SP        RMP2-FC                                                     Aug-CC-pVTZ         
Number of atoms                            I                5
Info1-9                                    I   N=           9
          33          24           0           0           0         110
           1           2           1
Full Title                                 C   N=           1
title       
Route                                      C   N=           4
#p SP mp2/aug-cc-pvtz density=current           
Charge                                     I                0
Multiplicity                               I                1
Number of electrons                        I               32
Number of alpha electrons                  I               16
Number of beta electrons                   I               16
Number of basis functions                  I              207
Number of independent functions            I              207
Number of point charges in /Mol/           I                0
Number of translation vectors              I                0
Atomic numbers                             I   N=           5
           1           8           8           7           8
Nuclear charges                            R   N=           5
  1.00000000E+00  8.00000000E+00  8.00000000E+00  7.00000000E+00  8.00000000E+00
Current cartesian coordinates              R   N=          15
  2.93362151E+00  3.17820503E+00  5.52579482E-31  2.74807368E+00  1.35653177E+00
  7.95310211E-31  9.60835310E-17  1.27117331E+00 -2.36916946E-31 -5.03240529E-01
 -1.43920615E+00  8.63971857E-32 -2.67444091E+00 -1.76567532E+00 -1.03987339E-30
Number of symbols in /Mol/                 I                0
Force Field                                I                0
Atom Types                                 C   N=           5
                                                            
Int Atom Types                             I   N=           5
           0           0           0           0           0
MM charges                                 R   N=           5
  0.00000000E+00  0.00000000E+00  0.00000000E+00  0.00000000E+00  0.00000000E+00
Integer atomic weights                     I   N=           5
           1          16          16          14          16
Real atomic weights                        R   N=           5
  1.00782504E+00  1.59949146E+01  1.59949146E+01  1.40030740E+01  1.59949146E+01
Atom fragment info                         I   N=           5
           0           0           0           0           0
Atom residue num                           I   N=           5
           0           0           0           0           0
Nuclear spins                              I   N=           5
           1           0           0           2           0
Nuclear ZEff                               R   N=           5
 -1.00000000E+00 -5.60000000E+00 -5.60000000E+00 -4.55000000E+00 -5.60000000E+00
Nuclear ZNuc                               R   N=           5
  1.00000000E+00  8.00000000E+00  8.00000000E+00  7.00000000E+00  8.00000000E+00
Nuclear QMom                               R   N=           5
  0.00000000E+00  0.00000000E+00  0.00000000E+00  2.04400000E+00  0.00000000E+00
Nuclear GFac                               R   N=           5
  2.79284600E+00  0.00000000E+00  0.00000000E+00  4.03761000E-01  0.00000000E+00
MicOpt                                     I   N=           5
          -1          -1          -1          -1          -1
Number of residues                         I                0
Number of secondary structures             I                0
SymInf integers                            I   N=          26
           1           2           1           1           1           1
           1          -1           0           0           0           0
           0           0           0           0           0           0
           0           0           0           0           0           0
           0           0
RotTr to input orientation                 R   N=          12
 -9.94852723E-01  6.67207906E-16 -1.01331434E-01  1.01331434E-01 -9.23421542E-16
 -9.94852723E-01 -7.57345231E-16 -1.00000000E+00  8.51059302E-16  2.59646928E+00
  0.00000000E+00  3.45911400E+00
Number of contracted shells                I               65
Number of primitive shells                 I              119
Pure/Cartesian d shells                    I                0
Pure/Cartesian f shells                    I                0
Highest angular momentum                   I                3
Largest degree of contraction              I                7
Shell types                                I   N=          65
           0           0           0           0           1           1
           1          -2          -2           0           0           0
           0           0           1           1           1           1
          -2          -2          -2          -3          -3           0
           0           0           0           0           1           1
           1           1          -2          -2          -2          -3
          -3           0           0           0           0           0
           1           1           1           1          -2          -2
          -2          -3          -3           0           0           0
           0           0           1           1           1           1
          -2          -2          -2          -3          -3
Number of primitives per shell             I   N=          65
           3           1           1           1           1           1
           1           1           1           7           6           1
           1           1           3           1           1           1
           1           1           1           1           1           7
           6           1           1           1           3           1
           1           1           1           1           1           1
           1           7           6           1           1           1
           3           1           1           1           1           1
           1           1           1           7           6           1
           1           1           3           1           1           1
           1           1           1           1           1
Shell to atom map                          I   N=          65
           1           1           1           1           1           1
           1           1           1           2           2           2
           2           2           2           2           2           2
           2           2           2           2           2           3
           3           3           3           3           3           3
           3           3           3           3           3           3
           3           4           4           4           4           4
           4           4           4           4           4           4
           4           4           4           5           5           5
           5           5           5           5           5           5
           5           5           5           5           5
Primitive exponents                        R   N=         119
  3.38700000E+01  5.09500000E+00  1.15900000E+00  3.25800000E-01  1.02700000E-01
  2.52600000E-02  1.40700000E+00  3.88000000E-01  1.02000000E-01  1.05700000E+00
  2.47000000E-01  1.53300000E+04  2.29900000E+03  5.22400000E+02  1.47300000E+02
  4.75500000E+01  1.67600000E+01  6.20700000E+00  5.22400000E+02  1.47300000E+02
  4.75500000E+01  1.67600000E+01  6.20700000E+00  6.88200000E-01  1.75200000E+00
  2.38400000E-01  7.37600000E-02  3.44600000E+01  7.74900000E+00  2.28000000E+00
  7.15600000E-01  2.14000000E-01  5.97400000E-02  2.31400000E+00  6.45000000E-01
  2.14000000E-01  1.42800000E+00  5.00000000E-01  1.53300000E+04  2.29900000E+03
  5.22400000E+02  1.47300000E+02  4.75500000E+01  1.67600000E+01  6.20700000E+00
  5.22400000E+02  1.47300000E+02  4.75500000E+01  1.67600000E+01  6.20700000E+00
  6.88200000E-01  1.75200000E+00  2.38400000E-01  7.37600000E-02  3.44600000E+01
  7.74900000E+00  2.28000000E+00  7.15600000E-01  2.14000000E-01  5.97400000E-02
  2.31400000E+00  6.45000000E-01  2.14000000E-01  1.42800000E+00  5.00000000E-01
  1.14200000E+04  1.71200000E+03  3.89300000E+02  1.10000000E+02  3.55700000E+01
  1.25400000E+01  4.64400000E+00  3.89300000E+02  1.10000000E+02  3.55700000E+01
  1.25400000E+01  4.64400000E+00  5.11800000E-01  1.29300000E+00  1.78700000E-01
  5.76000000E-02  2.66300000E+01  5.94800000E+00  1.74200000E+00  5.55000000E-01
  1.72500000E-01  4.91000000E-02  1.65400000E+00  4.69000000E-01  1.51000000E-01
  1.09300000E+00  3.64000000E-01  1.53300000E+04  2.29900000E+03  5.22400000E+02
  1.47300000E+02  4.75500000E+01  1.67600000E+01  6.20700000E+00  5.22400000E+02
  1.47300000E+02  4.75500000E+01  1.67600000E+01  6.20700000E+00  6.88200000E-01
  1.75200000E+00  2.38400000E-01  7.37600000E-02  3.44600000E+01  7.74900000E+00
  2.28000000E+00  7.15600000E-01  2.14000000E-01  5.97400000E-02  2.31400000E+00
  6.45000000E-01  2.14000000E-01  1.42800000E+00  5.00000000E-01
Contraction coefficients                   R   N=         119
  2.54948632E-02  1.90362766E-01  8.52162022E-01  1.00000000E+00  1.00000000E+00
  1.00000000E+00  1.00000000E+00  1.00000000E+00  1.00000000E+00  1.00000000E+00
  1.00000000E+00  5.19808943E-04  4.02025621E-03  2.07128267E-02  8.10105536E-02
  2.35962985E-01  4.42653446E-01  3.57064423E-01 -4.42115008E-05 -1.22591041E-03
 -1.05517725E-02 -6.74452633E-02 -1.71198607E-01  1.07329856E+00  1.00000000E+00
  1.00000000E+00  1.00000000E+00  4.11634896E-02  2.57762836E-01  8.02419274E-01
  1.00000000E+00  1.00000000E+00  1.00000000E+00  1.00000000E+00  1.00000000E+00
  1.00000000E+00  1.00000000E+00  1.00000000E+00  5.19808943E-04  4.02025621E-03
  2.07128267E-02  8.10105536E-02  2.35962985E-01  4.42653446E-01  3.57064423E-01
 -4.42115008E-05 -1.22591041E-03 -1.05517725E-02 -6.74452633E-02 -1.71198607E-01
  1.07329856E+00  1.00000000E+00  1.00000000E+00  1.00000000E+00  4.11634896E-02
  2.57762836E-01  8.02419274E-01  1.00000000E+00  1.00000000E+00  1.00000000E+00
  1.00000000E+00  1.00000000E+00  1.00000000E+00  1.00000000E+00  1.00000000E+00
  5.34563860E-04  4.13435660E-03  2.12335358E-02  8.25006224E-02  2.38138871E-01
  4.42551547E-01  3.53757422E-01 -4.89867350E-05 -1.19527323E-03 -1.03490714E-02
 -6.48680190E-02 -1.71552477E-01  1.07289568E+00  1.00000000E+00  1.00000000E+00
  1.00000000E+00  3.98072123E-02  2.49002660E-01  8.10479727E-01  1.00000000E+00
  1.00000000E+00  1.00000000E+00  1.00000000E+00  1.00000000E+00  1.00000000E+00
  1.00000000E+00  1.00000000E+00  5.19808943E-04  4.02025621E-03  2.07128267E-02
  8.10105536E-02  2.35962985E-01  4.42653446E-01  3.57064423E-01 -4.42115008E-05
 -1.22591041E-03 -1.05517725E-02 -6.74452633E-02 -1.71198607E-01  1.07329856E+00
  1.00000000E+00  1.00000000E+00  1.00000000E+00  4.11634896E-02  2.57762836E-01
  8.02419274E-01  1.00000000E+00  1.00000000E+00  1.00000000E+00  1.00000000E+00
  1.00000000E+00  1.00000000E+00  1.00000000E+00  1.00000000E+00
Coordinates of each shell                  R   N=         195
  2.93362151E+00  3.17820503E+00  1.06671029E-31  2.93362151E+00  3.17820503E+00
  1.06671029E-31  2.93362151E+00  3.17820503E+00  1.06671029E-31  2.93362151E+00
  3.17820503E+00  1.06671029E-31  2.93362151E+00  3.17820503E+00  1.06671029E-31
  2.93362151E+00  3.17820503E+00  1.06671029E-31  2.93362151E+00  3.17820503E+00
  1.06671029E-31  2.93362151E+00  3.17820503E+00  1.06671029E-31  2.93362151E+00
  3.17820503E+00  1.06671029E-31  2.74807368E+00  1.35653177E+00  2.59321935E-31
  2.74807368E+00  1.35653177E+00  2.59321935E-31  2.74807368E+00  1.35653177E+00
  2.59321935E-31  2.74807368E+00  1.35653177E+00  2.59321935E-31  2.74807368E+00
  1.35653177E+00  2.59321935E-31  2.74807368E+00  1.35653177E+00  2.59321935E-31
  2.74807368E+00  1.35653177E+00  2.59321935E-31  2.74807368E+00  1.35653177E+00
  2.59321935E-31  2.74807368E+00  1.35653177E+00  2.59321935E-31  2.74807368E+00
  1.35653177E+00  2.59321935E-31  2.74807368E+00  1.35653177E+00  2.59321935E-31
  2.74807368E+00  1.35653177E+00  2.59321935E-31  2.74807368E+00  1.35653177E+00
  2.59321935E-31  2.74807368E+00  1.35653177E+00  2.59321935E-31  2.29505245E-17
  1.27117331E+00 -1.25024767E-31  2.29505245E-17  1.27117331E+00 -1.25024767E-31
  2.29505245E-17  1.27117331E+00 -1.25024767E-31  2.29505245E-17  1.27117331E+00
 -1.25024767E-31  2.29505245E-17  1.27117331E+00 -1.25024767E-31  2.29505245E-17
  1.27117331E+00 -1.25024767E-31  2.29505245E-17  1.27117331E+00 -1.25024767E-31
  2.29505245E-17  1.27117331E+00 -1.25024767E-31  2.29505245E-17  1.27117331E+00
 -1.25024767E-31  2.29505245E-17  1.27117331E+00 -1.25024767E-31  2.29505245E-17
  1.27117331E+00 -1.25024767E-31  2.29505245E-17  1.27117331E+00 -1.25024767E-31
  2.29505245E-17  1.27117331E+00 -1.25024767E-31  2.29505245E-17  1.27117331E+00
 -1.25024767E-31 -5.03240529E-01 -1.43920615E+00  6.96306224E-32 -5.03240529E-01
 -1.43920615E+00  6.96306224E-32 -5.03240529E-01 -1.43920615E+00  6.96306224E-32
 -5.03240529E-01 -1.43920615E+00  6.96306224E-32 -5.03240529E-01 -1.43920615E+00
  6.96306224E-32 -5.03240529E-01 -1.43920615E+00  6.96306224E-32 -5.03240529E-01
 -1.43920615E+00  6.96306224E-32 -5.03240529E-01 -1.43920615E+00  6.96306224E-32
 -5.03240529E-01 -1.43920615E+00  6.96306224E-32 -5.03240529E-01 -1.43920615E+00
  6.96306224E-32 -5.03240529E-01 -1.43920615E+00  6.96306224E-32 -5.03240529E-01
 -1.43920615E+00  6.96306224E-32 -5.03240529E-01 -1.43920615E+00  6.96306224E-32
 -5.03240529E-01 -1.43920615E+00  6.96306224E-32 -2.67444091E+00 -1.76567532E+00
 -2.08557841E-31 -2.67444091E+00 -1.76567532E+00 -2.08557841E-31 -2.67444091E+00
 -1.76567532E+00 -2.08557841E-31 -2.67444091E+00 -1.76567532E+00 -2.08557841E-31
 -2.67444091E+00 -1.76567532E+00 -2.08557841E-31 -2.67444091E+00 -1.76567532E+00
 -2.08557841E-31 -2.67444091E+00 -1.76567532E+00 -2.08557841E-31 -2.67444091E+00
 -1.76567532E+00 -2.08557841E-31 -2.67444091E+00 -1.76567532E+00 -2.08557841E-31
 -2.67444091E+00 -1.76567532E+00 -2.08557841E-31 -2.67444091E+00 -1.76567532E+00
 -2.08557841E-31 -2.67444091E+00 -1.76567532E+00 -2.08557841E-31 -2.67444091E+00
 -1.76567532E+00 -2.08557841E-31 -2.67444091E+00 -1.76567532E+00 -2.08557841E-31
Num ILSW                                   I              100
ILSW                                       I   N=         100
           0           0           0           0           2           0
           0           0           0           0           0          -1
           5           0           0           0           0           0
           0           0           0           0           0           0
           1           0           0           0           0           0
           0           0      100000           0          -1           0
           0           0           0           0           0           0
           0           0           0           1           0           0
           0 -2000000000           1           0           0           0
           0           0           4          52           0           0
           0           0           0           0           0           0
           0           0           0           5           0           1
           0           0           0           0           0           0
           0           0           0           0           0           0
           0           0           0           0           0           0
           0           0           0           0           0           0
           0           0           0           0
Num RLSW                                   I               52
RLSW                                       R   N=          52
  1.00000000E+00  1.00000000E+00  1.00000000E+00  1.00000000E+00  1.00000000E+00
  0.00000000E+00  0.00000000E+00  1.00000000E+00  0.00000000E+00  0.00000000E+00
  0.00000000E+00  0.00000000E+00  1.00000000E+00  0.00000000E+00  0.00000000E+00
  0.00000000E+00  0.00000000E+00  1.00000000E+00  0.00000000E+00  0.00000000E+00
  0.00000000E+00  0.00000000E+00  1.00000000E+00  0.00000000E+00  0.00000000E+00
  0.00000000E+00  0.00000000E+00  1.00000000E+00  0.00000000E+00  0.00000000E+00
  0.00000000E+00  0.00000000E+00  1.00000000E+00  0.00000000E+00  0.00000000E+00
  0.00000000E+00  0.00000000E+00  0.00000000E+00  1.00000000E+00  1.00000000E+00
  0.00000000E+00  1.00000000E+00  0.00000000E+00  0.00000000E+00  0.00000000E+00
  0.00000000E+00  0.00000000E+00  0.00000000E+00  0.00000000E+00  0.00000000E+00
  0.00000000E+00  0.00000000E+00
MxBond                                     I                2
NBond                                      I   N=           5
           1           2           2           2           1
IBond                                      I   N=          10
           2           0           1           3           2           4
           3           5           4           0
RBond                                      R   N=          10
  1.00000000E+00  0.00000000E+00  1.00000000E+00  1.00000000E+00  1.00000000E+00
  1.00000000E+00  1.00000000E+00  2.00000000E+00  2.00000000E+00  0.00000000E+00
Virial Ratio                               R      2.002200097601961E+00
SCF Energy                                 R     -2.795030721929771E+02
MP2 Energy                                 R     -2.804466117246799E+02
Total Energy                               R     -2.804466117246799E+02
Post-SCF wavefunction norm                 R      1.119607115595102E+00
RMS Density                                R      3.556923479239116E-09
Job Status                                 I                1
Nuclear derivative order                   I                0
External E-field                           R   N=          35
  0.00000000E+00  0.00000000E+00  0.00000000E+00  0.00000000E+00  0.00000000E+00
  0.00000000E+00  0.00000000E+00  0.00000000E+00  0.00000000E+00  0.00000000E+00
  0.00000000E+00  0.00000000E+00  0.00000000E+00  0.00000000E+00  0.00000000E+00
  0.00000000E+00  0.00000000E+00  0.00000000E+00  0.00000000E+00  0.00000000E+00
  0.00000000E+00  0.00000000E+00  0.00000000E+00  0.00000000E+00  0.00000000E+00
  0.00000000E+00  0.00000000E+00  0.00000000E+00  0.00000000E+00  0.00000000E+00
  0.00000000E+00  0.00000000E+00  0.00000000E+00  0.00000000E+00  0.00000000E+00
IOpCl                                      I                0
IROHF                                      I                0
Alpha Orbital Energies                     R   N=         207
 -2.06887893E+01 -2.06846707E+01 -2.06588397E+01 -1.58115400E+01 -1.63135283E+00
 -1.49579786E+00 -1.25350981E+00 -9.46866066E-01 -7.73876996E-01 -7.61542449E-01
 -7.13712412E-01 -6.80395715E-01 -6.22184004E-01 -5.88834783E-01 -4.84462999E-01
 -4.70756460E-01  2.98695751E-02  7.44102911E-02  8.57920193E-02  1.01717038E-01
  1.33788167E-01  1.34072370E-01  1.44269719E-01  1.54749104E-01  1.78421088E-01
  1.94069934E-01  2.00141492E-01  2.06373705E-01  2.21103611E-01  2.36185524E-01
  2.37444117E-01  2.66150854E-01  2.94337237E-01  3.04237753E-01  3.10878701E-01
  3.43335156E-01  3.50042717E-01  3.87566444E-01  4.22422582E-01  4.31770971E-01
  5.27156784E-01  5.30411375E-01  5.58982233E-01  5.81843800E-01  6.30658756E-01
  6.37992823E-01  6.71718216E-01  6.85165797E-01  7.06486397E-01  7.11384696E-01
  7.24420374E-01  7.29938645E-01  7.44659249E-01  7.92035297E-01  7.92611175E-01
  8.10026621E-01  8.13528463E-01  8.32963167E-01  8.68979948E-01  9.09125251E-01
  9.22775492E-01  9.27142721E-01  9.57093666E-01  9.79437126E-01  9.85403069E-01
  1.01690551E+00  1.05258737E+00  1.05564475E+00  1.08427086E+00  1.11890614E+00
  1.14205531E+00  1.19005419E+00  1.22204541E+00  1.23400149E+00  1.33951958E+00
  1.35104253E+00  1.38768017E+00  1.45397053E+00  1.48824668E+00  1.51010768E+00
  1.53827317E+00  1.56690626E+00  1.57953715E+00  1.61393207E+00  1.66622198E+00
  1.67015762E+00  1.70298000E+00  1.79361123E+00  1.83049900E+00  1.83501697E+00
  1.88071760E+00  1.90985419E+00  1.95382104E+00  1.99449930E+00  2.00573515E+00
  2.07821252E+00  2.12126775E+00  2.13292943E+00  2.15088912E+00  2.22492310E+00
  2.26521071E+00  2.26561947E+00  2.29041255E+00  2.31542200E+00  2.34691371E+00
  2.38695164E+00  2.42647834E+00  2.43098383E+00  2.45443831E+00  2.46401665E+00
  2.47814683E+00  2.50300247E+00  2.59076185E+00  2.59849739E+00  2.62263697E+00
  2.62829789E+00  2.63584919E+00  2.67039174E+00  2.76101367E+00  2.82883793E+00
  2.85915529E+00  2.88855800E+00  2.89654577E+00  2.92759119E+00  2.96033054E+00
  3.02718117E+00  3.06674917E+00  3.12467983E+00  3.20549756E+00  3.22910306E+00
  3.31843958E+00  3.34309835E+00  3.52091941E+00  3.64419715E+00  3.83960407E+00
  3.84719040E+00  4.14983847E+00  4.16441264E+00  4.18526857E+00  4.27890905E+00
  4.35276730E+00  4.39468596E+00  4.46574533E+00  4.52115381E+00  4.67291660E+00
  4.71231642E+00  4.80948354E+00  4.82665307E+00  4.83142710E+00  4.89533530E+00
  5.02187502E+00  5.07834579E+00  5.10700212E+00  5.13991084E+00  5.18179891E+00
  5.24583976E+00  5.27295090E+00  5.30716046E+00  5.33112840E+00  5.36438606E+00
  5.60812439E+00  5.68854777E+00  5.77830927E+00  5.83303587E+00  5.95500920E+00
  6.17101187E+00  6.31048978E+00  6.33925432E+00  6.39575344E+00  6.49362809E+00
  6.50556012E+00  6.61508861E+00  6.66920570E+00  6.70323832E+00  6.75925699E+00
  6.76504619E+00  6.83816818E+00  6.90162505E+00  7.01653083E+00  7.05862282E+00
  7.05913681E+00  7.09148687E+00  7.12894824E+00  7.15216692E+00  7.18288730E+00
  7.23164506E+00  7.24371120E+00  7.31166914E+00  7.34190260E+00  7.35406759E+00
  7.40887203E+00  7.43308623E+00  7.48572060E+00  7.60996311E+00  7.63137234E+00
  7.63947236E+00  7.66859919E+00  7.79694934E+00  7.90165332E+00  8.09699410E+00
  8.31839636E+00  8.41033189E+00  8.54650383E+00  1.34073630E+01  1.44644906E+01
  1.51659865E+01  1.64288199E+01
Alpha MO coefficients                      R   N=       42849
  9.23065047E-05 -6.29623194E-04 -7.28549291E-04 -3.86298964E-06 -2.14128965E-05
 -2.72901641E-05  0.00000000E+00 -4.31654351E-05  5.86691674E-05  0.00000000E+00
  8.87060757E-05  3.70584208E-05  0.00000000E+00  3.19296901E-05  0.00000000E+00
  0.00000000E+00 -4.98234356E-05  2.10767062E-05 -4.20260866E-06  0.00000000E+00
  0.00000000E+00 -1.38614571E-04  1.17889354E-04  4.72819576E-03 -2.83062057E-04
  2.09544714E-05  1.54692311E-03  1.82565507E-03  1.06194512E-04  7.39459152E-06
  0.00000000E+00 -6.17204808E-04 -3.42736231E-05  0.00000000E+00 -1.10118496E-03
  7.85256865E-04  0.00000000E+00 -4.04310634E-04  6.25621976E-05  0.00000000E+00
  2.88656994E-05  0.00000000E+00  0.00000000E+00 -5.42657458E-05  6.27041249E-06
 -3.78197530E-04  0.00000000E+00  0.00000000E+00  7.41347266E-04 -3.76493248E-05
 -4.46846904E-04  0.00000000E+00  0.00000000E+00  2.44996463E-04 -1.31539100E-05
  0.00000000E+00  8.01533325E-05  1.24480657E-05  0.00000000E+00  0.00000000E+00
 -1.09738111E-04 -2.21910390E-06  0.00000000E+00  2.55429089E-04 -2.80402116E-05
  0.00000000E+00  0.00000000E+00 -3.52696984E-04  5.37526026E-05  9.76902098E-01
 -9.21805339E-03  4.33220716E-02  2.06553315E-03 -9.07878752E-04  1.49121707E-03
 -1.34621206E-03  0.00000000E+00 -1.43448679E-03  1.37468397E-03  0.00000000E+00
  8.17501281E-05 -1.16214796E-03  0.00000000E+00 -1.33588099E-04 -1.22691902E-05
  0.00000000E+00  4.60399449E-05  0.00000000E+00  0.00000000E+00 -3.57218406E-05
  2.20970889E-05  7.45295448E-04  0.00000000E+00  0.00000000E+00 -2.39948391E-04
 -3.87514151E-04 -3.59739782E-04  0.00000000E+00  0.00000000E+00 -3.12562341E-04
 -3.70075607E-04  0.00000000E+00  4.74521864E-05 -4.85605396E-05  0.00000000E+00
  0.00000000E+00 -3.90041991E-05 -1.50642873E-05  0.00000000E+00  2.33257256E-05
  2.15317443E-05  0.00000000E+00  0.00000000E+00 -3.06718750E-04 -1.35852308E-04
  3.75818181E-05  3.73830199E-05 -2.64180906E-04 -7.28449285E-04 -1.61551371E-04
 -2.65402070E-05 -9.63862224E-05  0.00000000E+00  2.78304753E-04  7.05175636E-04
  0.00000000E+00 -8.47753964E-04 -5.01502087E-04  0.00000000E+00 -1.26674347E-04
 -3.13221299E-05  0.00000000E+00 -1.79643095E-05  0.00000000E+00  0.00000000E+00
 -3.04361165E-05  1.52581774E-05 -3.25570683E-04  0.00000000E+00  0.00000000E+00
 -8.24236394E-04  1.30530006E-04 -3.34687885E-05  0.00000000E+00  0.00000000E+00
  1.01994667E-04 -1.17451126E-04  0.00000000E+00 -2.06355358E-05 -1.19560807E-04
  0.00000000E+00  0.00000000E+00 -6.34474180E-05 -1.35905787E-04  0.00000000E+00
  3.29437315E-06 -1.50695841E-04  0.00000000E+00  0.00000000E+00  4.28525692E-05
 -4.17236032E-04 -4.18037941E-03  1.38420118E-04 -1.94120770E-04 -2.47975986E-04
  1.49534078E-04 -1.17782129E-05 -2.81282070E-05  0.00000000E+00  7.47175487E-05
  1.64137881E-04  0.00000000E+00  2.46216028E-04  2.08503264E-04  0.00000000E+00
  1.30427766E-04  2.62849617E-05  0.00000000E+00 -2.79532546E-06  0.00000000E+00
  0.00000000E+00 -1.86360688E-05  1.55189810E-06  4.85683886E-07  0.00000000E+00
  0.00000000E+00  8.53199533E-05  8.54919417E-05 -1.03008402E-04  0.00000000E+00
  0.00000000E+00  1.70103802E-04  1.65651497E-04  0.00000000E+00  1.57540058E-05
 -3.08271073E-06  0.00000000E+00  0.00000000E+00 -3.37102313E-06 -1.22621326E-05
  0.00000000E+00 -3.40617544E-05  4.55944708E-05  0.00000000E+00  0.00000000E+00
  8.48537031E-05  8.89882527E-05  4.01438976E-05 -9.82285756E-04 -4.74807345E-04
 -8.77099016E-06 -2.18398912E-05  1.54413216E-05  0.00000000E+00  3.19997906E-06
  2.71465477E-04  0.00000000E+00 -3.89423901E-05  1.30339477E-04  0.00000000E+00
  2.59473792E-05  0.00000000E+00  0.00000000E+00  1.20379614E-05  1.03739292E-05
 -2.77099819E-05  0.00000000E+00  0.00000000E+00  1.19013950E-05  3.33180192E-05
  1.15741433E-04  8.39916809E-05 -2.83161235E-05  7.55085663E-04  6.45502468E-04
  1.09661111E-05  2.19225945E-06  0.00000000E+00 -7.72899427E-05  1.68846148E-05
  0.00000000E+00  3.22112674E-04  9.03076878E-04  0.00000000E+00 -3.58443599E-07
  7.63129176E-05  0.00000000E+00 -2.34174222E-06  0.00000000E+00  0.00000000E+00
 -5.43617669E-07 -5.59057399E-06 -3.64046373E-05  0.00000000E+00  0.00000000E+00
 -1.39796202E-05  7.98134939E-05 -2.59288407E-05  0.00000000E+00  0.00000000E+00
 -2.65551037E-04 -1.67236713E-04  0.00000000E+00  9.19141809E-06  5.76588177E-06
  0.00000000E+00  0.00000000E+00  1.72878363E-06 -1.82175210E-05  0.00000000E+00
 -3.84010610E-05 -3.72264221E-05  0.00000000E+00  0.00000000E+00 -7.67732171E-05
  2.17851510E-05  4.21953151E-03  2.29377941E-05  1.63726602E-04 -7.14081761E-05
 -4.61840923E-04  8.91055584E-06  1.36531407E-05  0.00000000E+00 -6.11144975E-05
 -5.09946178E-05  0.00000000E+00  2.42776041E-04 -2.13264476E-04  0.00000000E+00
 -1.82101595E-04 -6.34683306E-05  0.00000000E+00 -8.64062454E-06  0.00000000E+00
  0.00000000E+00  2.35103708E-05  2.15214638E-05  6.86968263E-06  0.00000000E+00
  0.00000000E+00 -1.24084113E-04 -5.81020224E-05 -5.92808793E-06  0.00000000E+00
  0.00000000E+00 -2.30127180E-04 -2.25043001E-04  0.00000000E+00  2.98411364E-06
 -1.03109521E-06  0.00000000E+00  0.00000000E+00  1.43908684E-06 -1.16288959E-05
  0.00000000E+00 -4.62665878E-05  6.45738336E-06  0.00000000E+00  0.00000000E+00
 -8.49648800E-05  1.86986550E-04  2.60520932E-04  1.47621210E-03 -3.83479507E-05
 -1.73850093E-03  3.43702935E-04 -1.67258759E-04 -3.52536104E-06  0.00000000E+00
 -2.05519983E-03 -3.83953233E-04  0.00000000E+00  1.13743714E-03  7.65017542E-04
  0.00000000E+00 -1.61555292E-04  5.63187881E-05  0.00000000E+00 -1.20517511E-04
  0.00000000E+00  0.00000000E+00  2.40396823E-04  9.27184400E-05 -4.16135698E-04
  0.00000000E+00  0.00000000E+00  8.48030925E-04 -1.01410052E-04  2.53172972E-05
  0.00000000E+00  0.00000000E+00 -3.66213578E-04 -1.32365333E-04  0.00000000E+00
 -1.59828455E-05  1.23036635E-05  0.00000000E+00  0.00000000E+00  3.64793658E-05
  2.26586395E-05  0.00000000E+00  1.60332840E-04 -7.17714347E-05  0.00000000E+00
  0.00000000E+00 -2.18984731E-04  4.00384396E-05  9.76629004E-01 -9.83419852E-03
  4.35931843E-02  4.68576667E-03 -3.80289932E-04  2.15840319E-03  4.76021710E-04
  0.00000000E+00 -2.34134864E-03 -5.91909940E-04  0.00000000E+00  1.18183660E-03
  5.03493473E-06  0.00000000E+00  1.15950168E-05 -3.97373911E-05  0.00000000E+00
 -2.38819401E-04  0.00000000E+00  0.00000000E+00  1.13977723E-04  3.48770847E-05
  3.84040724E-04  0.00000000E+00  0.00000000E+00 -8.19913676E-04 -4.10714310E-04
 -1.45809733E-04  0.00000000E+00  0.00000000E+00  2.45651840E-04  1.57303101E-05
  0.00000000E+00  4.69622108E-05  1.69506459E-05  0.00000000E+00  0.00000000E+00
 -1.56201393E-05 -1.03744595E-05  0.00000000E+00  1.43916696E-04  9.78670928E-06
  0.00000000E+00  0.00000000E+00 -1.93133265E-04 -1.40870538E-04  4.74883623E-04
  2.06382283E-03  1.17625964E-04  1.45302625E-05 -4.18743814E-05 -2.46744438E-04
  0.00000000E+00  1.06895579E-04 -1.27614446E-03  0.00000000E+00  3.08011649E-04
 -3.40485883E-04  0.00000000E+00 -2.65600585E-06  0.00000000E+00  0.00000000E+00
  7.60612204E-05  1.48250557E-05 -1.60212356E-04  0.00000000E+00  0.00000000E+00
 -5.37298767E-04 -1.98340410E-05  9.76829131E-01 -9.16312862E-03  4.34501330E-02
  1.64797885E-04 -1.14017927E-03 -1.55567546E-03  1.44744929E-03  0.00000000E+00
  1.56876159E-03 -1.29026842E-03  0.00000000E+00 -5.73621478E-04 -8.67483582E-04
  0.00000000E+00  5.63554252E-05 -2.94902328E-05  0.00000000E+00  2.93549116E-05
  0.00000000E+00  0.00000000E+00 -1.17888867E-04 -1.96962379E-06  7.57294911E-04
  0.00000000E+00  0.00000000E+00 -2.02873473E-04 -2.34052165E-04 -2.65951571E-04
  0.00000000E+00  0.00000000E+00  1.70154516E-04  1.27246126E-04  0.00000000E+00
 -6.40623261E-05  1.44568585E-06  0.00000000E+00  0.00000000E+00  1.88746744E-05
  9.69545304E-06  0.00000000E+00 -7.72174706E-07  1.23006093E-04  0.00000000E+00
  0.00000000E+00  2.58225549E-04  8.91479866E-05 -4.82058412E-03 -2.09948601E-04