title                                                                   
SP        RMP2-FC                                                     Aug-CC-pVTZ         
Number of atoms                            I                5
Info1-9                                    I   N=           9
          33          24           0           0           0         110
           1           2           1
Full Title                                 C   N=           1
title       
Route                                      C   N=           4
#p SP mp2/aug-cc-pvtz density=current           
Charge                                     I                0
Multiplicity                               I                1
Number of electrons                        I               32
Number of alpha electrons                  I               16
Number of beta electrons                   I               16
Number of basis functions                  I              207
Number of independent functions            I              207
Number of point charges in /Mol/           I                0
Number of translation vectors              I                0
Atomic numbers                             I   N=           5
           1           8           8           7           8
Nuclear charges                            R   N=           5
  1.00000000E+00  8.00000000E+00  8.00000000E+00  7.00000000E+00  8.00000000E+00
Current cartesian coordinates              R   N=          15
  4.23668638E+00  8.06766456E-01  2.58287976E-01  3.02203608E+00 -5.34359672E-01
 -2.26511960E-02  7.56326622E-01  1.02310603E+00 -3.01531939E-02 -1.25319960E+00
 -8.63543101E-01  1.18858442E-02 -3.21139885E+00  1.66008049E-01  1.01182792E-02
Number of symbols in /Mol/                 I                0
Force Field                                I                0
Atom Types                                 C   N=           5
                                                            
Int Atom Types                             I   N=           5
           0           0           0           0           0
MM charges                                 R   N=           5
  0.00000000E+00  0.00000000E+00  0.00000000E+00  0.00000000E+00  0.00000000E+00
Integer atomic weights                     I   N=           5
           1          16          16          14          16
Real atomic weights                        R   N=           5
  1.00782504E+00  1.59949146E+01  1.59949146E+01  1.40030740E+01  1.59949146E+01
Atom fragment info                         I   N=           5
           0           0           0           0           0
Atom residue num                           I   N=           5
           0           0           0           0           0
Nuclear spins                              I   N=           5
           1           0           0           2           0
Nuclear ZEff                               R   N=           5
 -1.00000000E+00 -5.60000000E+00 -5.60000000E+00 -4.55000000E+00 -5.60000000E+00
Nuclear ZNuc                               R   N=           5
  1.00000000E+00  8.00000000E+00  8.00000000E+00  7.00000000E+00  8.00000000E+00
Nuclear QMom                               R   N=           5
  0.00000000E+00  0.00000000E+00  0.00000000E+00  2.04400000E+00  0.00000000E+00
Nuclear GFac                               R   N=           5
  2.79284600E+00  0.00000000E+00  0.00000000E+00  4.03761000E-01  0.00000000E+00
MicOpt                                     I   N=           5
          -1          -1          -1          -1          -1
Number of residues                         I                0
Number of secondary structures             I                0
SymInf integers                            I   N=          26
           1           1           1           1           1           0
           0           0           0           0           0           0
           0           0           0           0           0           0
           0           0           0           0           0           0
           0           0
RotTr to input orientation                 R   N=          12
 -7.42918240E-01  8.96976838E-02 -6.63345170E-01  6.69147983E-01  1.25727909E-01
 -7.32416186E-01  1.77049657E-02 -9.88001426E-01 -1.53426581E-01  2.60309246E+00
 -2.26265126E-01  3.44090250E+00
Number of contracted shells                I               65
Number of primitive shells                 I              119
Pure/Cartesian d shells                    I                0
Pure/Cartesian f shells                    I                0
Highest angular momentum                   I                3
Largest degree of contraction              I                7
Shell types                                I   N=          65
           0           0           0           0           1           1
           1          -2          -2           0           0           0
           0           0           1           1           1           1
          -2          -2          -2          -3          -3           0
           0           0           0           0           1           1
           1           1          -2          -2          -2          -3
          -3           0           0           0           0           0
           1           1           1           1          -2          -2
          -2          -3          -3           0           0           0
           0           0           1           1           1           1
          -2          -2          -2          -3          -3
Number of primitives per shell             I   N=          65
           3           1           1           1           1           1
           1           1           1           7           6           1
           1           1           3           1           1           1
           1           1           1           1           1           7
           6           1           1           1           3           1
           1           1           1           1           1           1
           1           7           6           1           1           1
           3           1           1           1           1           1
           1           1           1           7           6           1
           1           1           3           1           1           1
           1           1           1           1           1
Shell to atom map                          I   N=          65
           1           1           1           1           1           1
           1           1           1           2           2           2
           2           2           2           2           2           2
           2           2           2           2           2           3
           3           3           3           3           3           3
           3           3           3           3           3           3
           3           4           4           4           4           4
           4           4           4           4           4           4
           4           4           4           5           5           5
           5           5           5           5           5           5
           5           5           5           5           5
Primitive exponents                        R   N=         119
  3.38700000E+01  5.09500000E+00  1.15900000E+00  3.25800000E-01  1.02700000E-01
  2.52600000E-02  1.40700000E+00  3.88000000E-01  1.02000000E-01  1.05700000E+00
  2.47000000E-01  1.53300000E+04  2.29900000E+03  5.22400000E+02  1.47300000E+02
  4.75500000E+01  1.67600000E+01  6.20700000E+00  5.22400000E+02  1.47300000E+02
  4.75500000E+01  1.67600000E+01  6.20700000E+00  6.88200000E-01  1.75200000E+00
  2.38400000E-01  7.37600000E-02  3.44600000E+01  7.74900000E+00  2.28000000E+00
  7.15600000E-01  2.14000000E-01  5.97400000E-02  2.31400000E+00  6.45000000E-01
  2.14000000E-01  1.42800000E+00  5.00000000E-01  1.53300000E+04  2.29900000E+03
  5.22400000E+02  1.47300000E+02  4.75500000E+01  1.67600000E+01  6.20700000E+00
  5.22400000E+02  1.47300000E+02  4.75500000E+01  1.67600000E+01  6.20700000E+00
  6.88200000E-01  1.75200000E+00  2.38400000E-01  7.37600000E-02  3.44600000E+01
  7.74900000E+00  2.28000000E+00  7.15600000E-01  2.14000000E-01  5.97400000E-02
  2.31400000E+00  6.45000000E-01  2.14000000E-01  1.42800000E+00  5.00000000E-01
  1.14200000E+04  1.71200000E+03  3.89300000E+02  1.10000000E+02  3.55700000E+01
  1.25400000E+01  4.64400000E+00  3.89300000E+02  1.10000000E+02  3.55700000E+01
  1.25400000E+01  4.64400000E+00  5.11800000E-01  1.29300000E+00  1.78700000E-01
  5.76000000E-02  2.66300000E+01  5.94800000E+00  1.74200000E+00  5.55000000E-01
  1.72500000E-01  4.91000000E-02  1.65400000E+00  4.69000000E-01  1.51000000E-01
  1.09300000E+00  3.64000000E-01  1.53300000E+04  2.29900000E+03  5.22400000E+02
  1.47300000E+02  4.75500000E+01  1.67600000E+01  6.20700000E+00  5.22400000E+02
  1.47300000E+02  4.75500000E+01  1.67600000E+01  6.20700000E+00  6.88200000E-01
  1.75200000E+00  2.38400000E-01  7.37600000E-02  3.44600000E+01  7.74900000E+00
  2.28000000E+00  7.15600000E-01  2.14000000E-01  5.97400000E-02  2.31400000E+00
  6.45000000E-01  2.14000000E-01  1.42800000E+00  5.00000000E-01
Contraction coefficients                   R   N=         119
  2.54948632E-02  1.90362766E-01  8.52162022E-01  1.00000000E+00  1.00000000E+00
  1.00000000E+00  1.00000000E+00  1.00000000E+00  1.00000000E+00  1.00000000E+00
  1.00000000E+00  5.19808943E-04  4.02025621E-03  2.07128267E-02  8.10105536E-02
  2.35962985E-01  4.42653446E-01  3.57064423E-01 -4.42115008E-05 -1.22591041E-03
 -1.05517725E-02 -6.74452633E-02 -1.71198607E-01  1.07329856E+00  1.00000000E+00
  1.00000000E+00  1.00000000E+00  4.11634896E-02  2.57762836E-01  8.02419274E-01
  1.00000000E+00  1.00000000E+00  1.00000000E+00  1.00000000E+00  1.00000000E+00
  1.00000000E+00  1.00000000E+00  1.00000000E+00  5.19808943E-04  4.02025621E-03
  2.07128267E-02  8.10105536E-02  2.35962985E-01  4.42653446E-01  3.57064423E-01
 -4.42115008E-05 -1.22591041E-03 -1.05517725E-02 -6.74452633E-02 -1.71198607E-01
  1.07329856E+00  1.00000000E+00  1.00000000E+00  1.00000000E+00  4.11634896E-02
  2.57762836E-01  8.02419274E-01  1.00000000E+00  1.00000000E+00  1.00000000E+00
  1.00000000E+00  1.00000000E+00  1.00000000E+00  1.00000000E+00  1.00000000E+00
  5.34563860E-04  4.13435660E-03  2.12335358E-02  8.25006224E-02  2.38138871E-01
  4.42551547E-01  3.53757422E-01 -4.89867350E-05 -1.19527323E-03 -1.03490714E-02
 -6.48680190E-02 -1.71552477E-01  1.07289568E+00  1.00000000E+00  1.00000000E+00
  1.00000000E+00  3.98072123E-02  2.49002660E-01  8.10479727E-01  1.00000000E+00
  1.00000000E+00  1.00000000E+00  1.00000000E+00  1.00000000E+00  1.00000000E+00
  1.00000000E+00  1.00000000E+00  5.19808943E-04  4.02025621E-03  2.07128267E-02
  8.10105536E-02  2.35962985E-01  4.42653446E-01  3.57064423E-01 -4.42115008E-05
 -1.22591041E-03 -1.05517725E-02 -6.74452633E-02 -1.71198607E-01  1.07329856E+00
  1.00000000E+00  1.00000000E+00  1.00000000E+00  4.11634896E-02  2.57762836E-01
  8.02419274E-01  1.00000000E+00  1.00000000E+00  1.00000000E+00  1.00000000E+00
  1.00000000E+00  1.00000000E+00  1.00000000E+00  1.00000000E+00
Coordinates of each shell                  R   N=         195
  4.23668638E+00  8.06766456E-01  2.58287976E-01  4.23668638E+00  8.06766456E-01
  2.58287976E-01  4.23668638E+00  8.06766456E-01  2.58287976E-01  4.23668638E+00
  8.06766456E-01  2.58287976E-01  4.23668638E+00  8.06766456E-01  2.58287976E-01
  4.23668638E+00  8.06766456E-01  2.58287976E-01  4.23668638E+00  8.06766456E-01
  2.58287976E-01  4.23668638E+00  8.06766456E-01  2.58287976E-01  4.23668638E+00
  8.06766456E-01  2.58287976E-01  3.02203608E+00 -5.34359672E-01 -2.26511960E-02
  3.02203608E+00 -5.34359672E-01 -2.26511960E-02  3.02203608E+00 -5.34359672E-01
 -2.26511960E-02  3.02203608E+00 -5.34359672E-01 -2.26511960E-02  3.02203608E+00
 -5.34359672E-01 -2.26511960E-02  3.02203608E+00 -5.34359672E-01 -2.26511960E-02
  3.02203608E+00 -5.34359672E-01 -2.26511960E-02  3.02203608E+00 -5.34359672E-01
 -2.26511960E-02  3.02203608E+00 -5.34359672E-01 -2.26511960E-02  3.02203608E+00
 -5.34359672E-01 -2.26511960E-02  3.02203608E+00 -5.34359672E-01 -2.26511960E-02
  3.02203608E+00 -5.34359672E-01 -2.26511960E-02  3.02203608E+00 -5.34359672E-01
 -2.26511960E-02  3.02203608E+00 -5.34359672E-01 -2.26511960E-02  7.56326622E-01
  1.02310603E+00 -3.01531939E-02  7.56326622E-01  1.02310603E+00 -3.01531939E-02
  7.56326622E-01  1.02310603E+00 -3.01531939E-02  7.56326622E-01  1.02310603E+00
 -3.01531939E-02  7.56326622E-01  1.02310603E+00 -3.01531939E-02  7.56326622E-01
  1.02310603E+00 -3.01531939E-02  7.56326622E-01  1.02310603E+00 -3.01531939E-02
  7.56326622E-01  1.02310603E+00 -3.01531939E-02  7.56326622E-01  1.02310603E+00
 -3.01531939E-02  7.56326622E-01  1.02310603E+00 -3.01531939E-02  7.56326622E-01
  1.02310603E+00 -3.01531939E-02  7.56326622E-01  1.02310603E+00 -3.01531939E-02
  7.56326622E-01  1.02310603E+00 -3.01531939E-02  7.56326622E-01  1.02310603E+00
 -3.01531939E-02 -1.25319960E+00 -8.63543101E-01  1.18858442E-02 -1.25319960E+00
 -8.63543101E-01  1.18858442E-02 -1.25319960E+00 -8.63543101E-01  1.18858442E-02
 -1.25319960E+00 -8.63543101E-01  1.18858442E-02 -1.25319960E+00 -8.63543101E-01
  1.18858442E-02 -1.25319960E+00 -8.63543101E-01  1.18858442E-02 -1.25319960E+00
 -8.63543101E-01  1.18858442E-02 -1.25319960E+00 -8.63543101E-01  1.18858442E-02
 -1.25319960E+00 -8.63543101E-01  1.18858442E-02 -1.25319960E+00 -8.63543101E-01
  1.18858442E-02 -1.25319960E+00 -8.63543101E-01  1.18858442E-02 -1.25319960E+00
 -8.63543101E-01  1.18858442E-02 -1.25319960E+00 -8.63543101E-01  1.18858442E-02
 -1.25319960E+00 -8.63543101E-01  1.18858442E-02 -3.21139885E+00  1.66008049E-01
  1.01182792E-02 -3.21139885E+00  1.66008049E-01  1.01182792E-02 -3.21139885E+00
  1.66008049E-01  1.01182792E-02 -3.21139885E+00  1.66008049E-01  1.01182792E-02
 -3.21139885E+00  1.66008049E-01  1.01182792E-02 -3.21139885E+00  1.66008049E-01
  1.01182792E-02 -3.21139885E+00  1.66008049E-01  1.01182792E-02 -3.21139885E+00
  1.66008049E-01  1.01182792E-02 -3.21139885E+00  1.66008049E-01  1.01182792E-02
 -3.21139885E+00  1.66008049E-01  1.01182792E-02 -3.21139885E+00  1.66008049E-01
  1.01182792E-02 -3.21139885E+00  1.66008049E-01  1.01182792E-02 -3.21139885E+00
  1.66008049E-01  1.01182792E-02 -3.21139885E+00  1.66008049E-01  1.01182792E-02
Num ILSW                                   I              100
ILSW                                       I   N=         100
           0           0           0           0           2           0
           0           0           0           0           0          -1
           5           0           0           0           0           0
           0           0           0           0           0           0
           1           0           0           0           0           0
           0           0      100000           0          -1           0
           0           0           0           0           0           0
           0           0           0           1           0           0
           0 -2000000000           1           0           0           0
           0           0           4          52           0           0
           0           0           0           0           0           0
           0           0           0           5           0           1
           0           0           0           0           0           0
           0           0           0           0           0           0
           0           0           0           0           0           0
           0           0           0           0           0           0
           0           0           0           0
Num RLSW                                   I               52
RLSW                                       R   N=          52
  1.00000000E+00  1.00000000E+00  1.00000000E+00  1.00000000E+00  1.00000000E+00
  0.00000000E+00  0.00000000E+00  1.00000000E+00  0.00000000E+00  0.00000000E+00
  0.00000000E+00  0.00000000E+00  1.00000000E+00  0.00000000E+00  0.00000000E+00
  0.00000000E+00  0.00000000E+00  1.00000000E+00  0.00000000E+00  0.00000000E+00
  0.00000000E+00  0.00000000E+00  1.00000000E+00  0.00000000E+00  0.00000000E+00
  0.00000000E+00  0.00000000E+00  1.00000000E+00  0.00000000E+00  0.00000000E+00
  0.00000000E+00  0.00000000E+00  1.00000000E+00  0.00000000E+00  0.00000000E+00
  0.00000000E+00  0.00000000E+00  0.00000000E+00  1.00000000E+00  1.00000000E+00
  0.00000000E+00  1.00000000E+00  0.00000000E+00  0.00000000E+00  0.00000000E+00
  0.00000000E+00  0.00000000E+00  0.00000000E+00  0.00000000E+00  0.00000000E+00
  0.00000000E+00  0.00000000E+00
MxBond                                     I                2
NBond                                      I   N=           5
           1           2           2           2           1
IBond                                      I   N=          10
           2           0           1           3           2           4
           3           5           4           0
RBond                                      R   N=          10
  1.00000000E+00  0.00000000E+00  1.00000000E+00  1.00000000E+00  1.00000000E+00
  1.00000000E+00  1.00000000E+00  2.00000000E+00  2.00000000E+00  0.00000000E+00
Virial Ratio                               R      2.002353554965838E+00
SCF Energy                                 R     -2.795017707766021E+02
MP2 Energy                                 R     -2.804468472389380E+02
Total Energy                               R     -2.804468472389380E+02
Post-SCF wavefunction norm                 R      1.120227330427335E+00
RMS Density                                R      5.085056922814146E-09
Job Status                                 I                1
Nuclear derivative order                   I                0
External E-field                           R   N=          35
  0.00000000E+00  0.00000000E+00  0.00000000E+00  0.00000000E+00  0.00000000E+00
  0.00000000E+00  0.00000000E+00  0.00000000E+00  0.00000000E+00  0.00000000E+00
  0.00000000E+00  0.00000000E+00  0.00000000E+00  0.00000000E+00  0.00000000E+00
  0.00000000E+00  0.00000000E+00  0.00000000E+00  0.00000000E+00  0.00000000E+00
  0.00000000E+00  0.00000000E+00  0.00000000E+00  0.00000000E+00  0.00000000E+00
  0.00000000E+00  0.00000000E+00  0.00000000E+00  0.00000000E+00  0.00000000E+00
  0.00000000E+00  0.00000000E+00  0.00000000E+00  0.00000000E+00  0.00000000E+00
IOpCl                                      I                0
IROHF                                      I                0
Alpha Orbital Energies                     R   N=         207
 -2.06909966E+01 -2.06842723E+01 -2.06600875E+01 -1.58127430E+01 -1.62402785E+00
 -1.49580520E+00 -1.25442813E+00 -9.48081913E-01 -7.72593533E-01 -7.59385429E-01
 -7.12555797E-01 -6.78966819E-01 -6.20054764E-01 -5.89001103E-01 -4.86450194E-01
 -4.71921132E-01  2.95965643E-02  7.16540426E-02  8.59318664E-02  1.01742425E-01
  1.32699416E-01  1.34864768E-01  1.43950265E-01  1.54464725E-01  1.78156148E-01
  1.94123398E-01  1.99406147E-01  2.06545408E-01  2.20805413E-01  2.35377604E-01
  2.37292801E-01  2.66705637E-01  2.92732603E-01  3.00852831E-01  3.11663994E-01
  3.43477172E-01  3.52809778E-01  3.87457067E-01  4.18259923E-01  4.29633964E-01
  5.27180903E-01  5.30615826E-01  5.58574863E-01  5.81166263E-01  6.25961684E-01
  6.38158325E-01  6.73866419E-01  6.83768370E-01  7.06745147E-01  7.12640688E-01
  7.20085564E-01  7.31985235E-01  7.47107198E-01  7.86628635E-01  7.94114858E-01
  8.10462493E-01  8.13782621E-01  8.33264525E-01  8.67798664E-01  9.08346155E-01
  9.16906977E-01  9.32249029E-01  9.55727908E-01  9.72089410E-01  9.88005797E-01
  1.01565972E+00  1.05446711E+00  1.05749848E+00  1.08339083E+00  1.11483726E+00
  1.13127967E+00  1.19721451E+00  1.21933480E+00  1.23378262E+00  1.33733945E+00
  1.35073249E+00  1.38817212E+00  1.45503430E+00  1.49141647E+00  1.50841103E+00
  1.53730121E+00  1.56719071E+00  1.58054133E+00  1.60572161E+00  1.66493307E+00
  1.66684809E+00  1.70534983E+00  1.78990463E+00  1.82993874E+00  1.83667272E+00
  1.88037354E+00  1.90620043E+00  1.95615261E+00  1.98361088E+00  2.02274069E+00
  2.07762361E+00  2.11662152E+00  2.12834379E+00  2.15455029E+00  2.22196754E+00
  2.25884959E+00  2.27091522E+00  2.28773755E+00  2.31242703E+00  2.34365027E+00
  2.38746962E+00  2.40697293E+00  2.44649343E+00  2.45381397E+00  2.46597028E+00
  2.47656201E+00  2.50558140E+00  2.58953366E+00  2.59816698E+00  2.61905087E+00
  2.62591499E+00  2.63722567E+00  2.66599581E+00  2.75204959E+00  2.82789991E+00
  2.84864283E+00  2.88799616E+00  2.89778259E+00  2.91894224E+00  2.95968461E+00
  3.02145968E+00  3.07456113E+00  3.12018425E+00  3.20458051E+00  3.22872161E+00
  3.31603957E+00  3.34091713E+00  3.51442305E+00  3.64683628E+00  3.83756388E+00
  3.84788229E+00  4.13790338E+00  4.16408917E+00  4.19920018E+00  4.25493719E+00
  4.34254592E+00  4.39384070E+00  4.47286282E+00  4.52298994E+00  4.65361747E+00
  4.71103644E+00  4.80434242E+00  4.82320275E+00  4.82676909E+00  4.89667521E+00
  5.02272919E+00  5.07344849E+00  5.10178627E+00  5.14557974E+00  5.18241194E+00
  5.24824547E+00  5.27166136E+00  5.30500702E+00  5.33002976E+00  5.35256683E+00
  5.60143752E+00  5.67358660E+00  5.76334480E+00  5.83160992E+00  5.95514233E+00
  6.16933496E+00  6.31121370E+00  6.34075248E+00  6.39280140E+00  6.49414006E+00
  6.50517350E+00  6.62012200E+00  6.65763414E+00  6.70487474E+00  6.74913835E+00
  6.76888885E+00  6.83450561E+00  6.89834826E+00  7.01196448E+00  7.05466815E+00
  7.05769136E+00  7.09339704E+00  7.12649213E+00  7.14686168E+00  7.18763968E+00
  7.22486376E+00  7.23907446E+00  7.30474423E+00  7.32275802E+00  7.35459803E+00
  7.39372953E+00  7.42898163E+00  7.48589256E+00  7.60671314E+00  7.61823193E+00
  7.63167820E+00  7.67239343E+00  7.78599835E+00  7.88472900E+00  8.09184026E+00
  8.31237282E+00  8.40173791E+00  8.54187130E+00  1.33863348E+01  1.43986462E+01
  1.51608321E+01  1.61507401E+01
Alpha MO coefficients                      R   N=       42849
  8.87076172E-05 -5.71917790E-04 -6.97338514E-04 -5.11821002E-06 -3.38002929E-05
 -9.17080949E-06 -1.30896851E-05 -1.84427075E-05  6.61815300E-05  2.32714041E-05
  7.75819036E-05 -1.87970744E-05  3.36035858E-05  3.15504046E-05  2.42307263E-06
  1.97823413E-07  7.03022640E-06  5.55343735E-05 -3.47598620E-06  8.87050282E-06
  1.42037975E-05  7.52557659E-05  1.61871917E-04  4.58580804E-03 -2.81026002E-04
  1.50573703E-05  1.51946883E-03  1.81127861E-03  9.00725205E-05 -5.67740189E-05
  2.77332525E-06 -5.19975552E-04  3.34172808E-04 -1.44402194E-05 -4.52409403E-04
  1.25441933E-03  4.83839898E-05 -2.77090175E-04  2.91824137E-04  4.40280844E-06
  2.87556007E-05 -1.65577480E-06 -5.24127409E-07 -1.05997648E-05  5.36756652E-05
 -3.76883171E-04  3.90749517E-06 -8.14245148E-06  1.88366737E-04 -7.21580629E-04
 -4.34186062E-04  5.40692613E-05  2.23082676E-05  6.69387337E-05 -2.54758212E-04
  7.49436914E-06  7.01744495E-05 -3.84989287E-05 -1.85988690E-06 -5.75836374E-06
  3.35799466E-05  1.04742909E-04 -1.84531006E-05  1.95316284E-04 -1.69986024E-04
  1.37741401E-05  1.29625098E-05  1.65853400E-04  3.16148367E-04  9.76911883E-01
 -9.21532230E-03  4.33174500E-02  2.04424537E-03 -9.46377115E-04  3.95843291E-04
 -1.97784003E-03  4.52084211E-05 -3.32170502E-04  1.96631256E-03 -4.05017115E-05
 -6.31774476E-04 -9.78204472E-04  1.77540347E-05 -1.37428369E-04  7.39016471E-05
  6.60897582E-06  4.65502318E-05  1.80668801E-06  1.01714885E-06  9.77259577E-06
  3.96781036E-05  7.45723751E-04  4.69027082E-06  1.48153687E-05 -4.39495931E-04
  1.10228252E-04 -3.53723809E-04  2.04683401E-05 -1.28794349E-06 -4.52315365E-04
  1.87306813E-04  3.89416487E-06  8.68472358E-06 -6.78251012E-05 -1.35707529E-06
 -1.23800627E-06 -1.34809758E-06  4.22589790E-05 -2.54005027E-06  3.40507599E-05
  4.13410177E-06  5.22745128E-06  2.04155600E-07 -3.14689588E-05  3.33667256E-04
  3.87150792E-05  4.36314670E-05 -2.64828192E-04 -6.84595178E-04 -1.13377627E-04
 -7.98014901E-05 -6.22577382E-05  2.37546823E-06  6.41344173E-04  4.08871185E-04
 -1.58201143E-05 -9.91727640E-04  1.13431920E-04  1.01227193E-05 -1.04187147E-04
  5.74748077E-05 -7.63570070E-06 -1.82168081E-05 -2.03375887E-06 -1.08421454E-06
  5.64364544E-06  3.28449074E-05 -3.27974916E-04 -6.03416821E-06 -1.72623877E-05
 -1.17917555E-04  8.28117032E-04 -4.00619791E-05  2.90066760E-05 -2.82539893E-06
 -7.81652485E-05 -1.38934362E-04  5.25846827E-06 -8.80198323E-05 -8.39441840E-05
  2.31848292E-07 -6.34538018E-06 -1.08669414E-04  1.04946983E-04  5.38338005E-06
 -8.56207354E-05 -1.23773981E-04  7.04138698E-06 -4.84923300E-06 -4.11659949E-04
  9.79153358E-05 -2.52166683E-03  1.21700435E-04 -1.21353470E-04 -2.76487457E-04
  1.13768975E-04 -2.27876488E-05 -1.78689091E-05  4.49114290E-07  1.52161246E-04
  9.23095128E-05 -2.41089755E-06  3.05970218E-04  3.03601960E-05  2.28728816E-05
  1.08017819E-04 -6.17819806E-05  5.92967785E-06 -3.35172597E-06 -8.95662701E-07
 -4.43585626E-07 -4.30548682E-06  1.74260881E-05  6.61446727E-07  4.33719412E-06
  2.25118420E-06  1.08858023E-04 -5.04937484E-05 -1.02326590E-04  7.40359939E-06
 -3.71762211E-06  2.07133200E-04 -1.12184318E-04  1.43673020E-07  1.07013087E-05
 -1.22989237E-05  3.39835202E-07 -2.51181713E-07 -9.95033470E-06  8.18747004E-06
 -3.39928787E-06 -7.06075711E-07  5.66034931E-05  2.53111412E-06  1.65906257E-06
  5.78130039E-05 -1.09672490E-04  3.71257978E-05 -9.52054592E-04 -4.70148630E-04
 -1.10447642E-05 -7.44413220E-06  2.50280423E-05 -1.49522606E-06  1.52390998E-04
  2.07977730E-04  4.75846410E-05  4.17628002E-05  1.28425771E-04  2.70647365E-05
  2.39882609E-05  9.05763043E-07 -9.81545542E-06  1.25749381E-05 -7.44553719E-06
 -2.75115873E-05 -3.79999542E-06  2.60578414E-06  3.65984383E-05 -4.35621318E-08
  1.12557605E-04  8.37237363E-05 -2.75904532E-05  7.22430586E-04  6.34664917E-04
  1.01546591E-05 -3.65289955E-06 -1.95253322E-06 -5.29903763E-05  5.20514883E-05
  1.50770541E-05  7.81079076E-04  5.01344752E-04  9.70708064E-05  5.28244043E-05
  6.04644906E-05  5.99192271E-06 -2.44871339E-06 -9.30946695E-07 -8.99671974E-07
 -5.62775115E-06 -1.66353821E-06 -3.18071792E-05  1.32057831E-05  1.31797370E-05
  7.30612029E-05  3.99938424E-05 -1.29805626E-05  3.84591036E-05  4.02452084E-05
 -2.29696391E-04  1.98909701E-04  8.91700409E-07  1.08145763E-05 -6.99983176E-07
  4.97338076E-07 -6.64951435E-07 -1.83614235E-05  3.61975841E-06 -1.18435663E-05
 -5.15296907E-05 -3.78388279E-06  2.17503958E-06  1.13421178E-05  4.43376610E-05
  6.32966481E-05  2.56081441E-03  4.04952470E-05  8.86551389E-05 -6.77481294E-05
 -4.71452454E-04  1.50642491E-05  8.64749566E-06 -6.01696716E-07 -8.19273425E-05
 -8.77893669E-06  2.37035773E-06  7.92281490E-05 -2.85899100E-04 -2.14913628E-05
 -1.88083861E-04  6.20341392E-05 -8.05779759E-06 -8.78919332E-06 -4.37936078E-07
  9.73084261E-08  2.55007377E-05 -1.55452612E-05  4.43975895E-06  7.64085953E-07
 -9.85651481E-07 -7.88113773E-05  9.81876476E-05 -4.90740831E-06 -1.29950873E-05
  4.44520633E-06 -2.58487650E-04  1.52254587E-04 -1.13434185E-07  2.13687545E-06
 -2.38999140E-06 -4.08287891E-07 -6.71482992E-07 -1.32090160E-05  2.99974090E-06
  6.49627835E-07 -3.46544666E-05  3.03008712E-05 -4.38441751E-07  4.09503856E-06
  2.01644763E-04  8.97920061E-06  2.58536756E-04  1.46401787E-03 -7.84408905E-05
 -1.53106261E-03  4.05934847E-04 -1.16230124E-04  8.59651168E-05 -1.26755886E-07
 -1.91859144E-03  9.17058175E-04 -2.63901265E-06  1.28303067E-03  9.48918917E-07
 -7.11713445E-06 -1.02448239E-04  1.47995170E-04  1.03246572E-06 -1.23378042E-04
  1.10448046E-07  5.83020183E-07  1.61117849E-04 -2.04712389E-04 -4.42512658E-04
  9.06568547E-06 -2.88502754E-06  2.01772421E-04 -8.79364382E-04  1.09178800E-05
  1.62518071E-05 -6.62141306E-06 -2.18544131E-04  2.82759606E-04 -4.70946383E-07
  7.97815123E-06  1.30359471E-05 -2.42326663E-07  4.42930604E-07  6.44616636E-06
 -2.21030282E-05  3.12750582E-06  9.05293582E-05 -1.55403352E-04  2.74760145E-06
  3.56419589E-06  1.19175400E-04  2.13559718E-04  9.76649453E-01 -9.84798695E-03
  4.35679016E-02  4.49118552E-03 -4.48345380E-04  2.01298666E-03 -8.90323283E-04
 -4.45042966E-07 -2.27594488E-03  9.32837436E-04  1.06647194E-06  9.10803043E-04
 -6.83436827E-04  1.61709948E-05 -2.20523986E-05 -3.82132982E-05  3.65082444E-06
 -2.32312255E-04 -1.79366773E-06 -4.37125650E-06  6.05917445E-05 -8.88058657E-05
  3.90586725E-04  7.45948534E-07 -2.97322531E-06 -6.45050392E-04  6.74232415E-04
 -1.54131185E-04  3.00388368E-06 -4.99339529E-06  9.02657947E-05 -2.41729560E-04
 -5.54384471E-07  5.25279880E-05 -1.68971190E-05  6.73087366E-07  9.08289365E-07
 -5.16202239E-06  2.53735631E-05  1.10428608E-06  1.16619349E-04 -7.44520114E-05
 -1.45716869E-07 -2.17187356E-06 -6.97268209E-05  2.25095367E-04  4.72534022E-04
  2.08637435E-03  1.40206033E-04  1.45612542E-05 -1.79080063E-04 -1.70457066E-04
 -4.40842219E-05 -6.63755432E-04 -1.08298266E-03 -1.98214069E-04  3.80565902E-05
 -4.50666767E-04 -2.90954572E-05 -2.46002577E-06 -5.58083025E-06 -2.83217641E-06
  3.79007448E-05 -6.59202947E-05 -1.43791960E-04  7.86670861E-05  9.50680394E-05
 -1.75648430E-04  4.95470038E-04  9.76830477E-01 -9.16315171E-03  4.34490531E-02
  1.48965722E-04 -1.15699864E-03 -4.09926000E-04  2.07324648E-03  2.41599702E-04
  5.11038941E-04 -1.95795209E-03 -2.23374408E-04 -9.78596582E-04 -3.61297733E-04
 -9.55708258E-05  3.70017303E-05 -5.56139499E-05  6.24264801E-07  3.09170433E-05
  4.27233748E-06  8.55023711E-06 -3.72827514E-05  1.11151644E-04  7.37251310E-04
 -1.10169419E-04 -1.12157247E-04 -2.85224550E-04  1.35083552E-04 -2.66191531E-04
 -2.82824959E-05 -2.16191175E-06  1.74451185E-04 -1.33179360E-04  5.00600998E-06
 -5.08398875E-05  3.79863332E-05  6.54668473E-06 -1.64183672E-06  2.65842182E-06
 -2.19574937E-05  2.73237855E-05  6.47635193E-05  9.31478972E-05 -9.18832943E-06
 -4.00817682E-05  5.35065131E-08 -2.68177390E-04 -4.67741703E-03 -2.08673045E-04