title                                                                   
SP        RMP2-FC                                                     Aug-CC-pVTZ         
Number of atoms                            I                5
Info1-9                                    I   N=           9
          33          24           0           0           0         110
           1           2           1
Full Title                                 C   N=           1
title       
Route                                      C   N=           4
#p SP mp2/aug-cc-pvtz density=current           
Charge                                     I                0
Multiplicity                               I                1
Number of electrons                        I               32
Number of alpha electrons                  I               16
Number of beta electrons                   I               16
Number of basis functions                  I              207
Number of independent functions            I              207
Number of point charges in /Mol/           I                0
Number of translation vectors              I                0
Atomic numbers                             I   N=           5
           1           8           8           7           8
Nuclear charges                            R   N=           5
  1.00000000E+00  8.00000000E+00  8.00000000E+00  7.00000000E+00  8.00000000E+00
Current cartesian coordinates              R   N=          15
  2.92114778E+00  3.19852980E+00  4.38596824E-31  2.74745994E+00  1.37568752E+00
  2.64867469E-31  4.08781884E-17  1.27244549E+00 -5.21971674E-32 -4.85589822E-01
 -1.44115182E+00 -5.36228412E-32 -2.68771232E+00 -1.78694140E+00 -4.44521288E-31
Number of symbols in /Mol/                 I                0
Force Field                                I                0
Atom Types                                 C   N=           5
                                                            
Int Atom Types                             I   N=           5
           0           0           0           0           0
MM charges                                 R   N=           5
  0.00000000E+00  0.00000000E+00  0.00000000E+00  0.00000000E+00  0.00000000E+00
Integer atomic weights                     I   N=           5
           1          16          16          14          16
Real atomic weights                        R   N=           5
  1.00782504E+00  1.59949146E+01  1.59949146E+01  1.40030740E+01  1.59949146E+01
Atom fragment info                         I   N=           5
           0           0           0           0           0
Atom residue num                           I   N=           5
           0           0           0           0           0
Nuclear spins                              I   N=           5
           1           0           0           2           0
Nuclear ZEff                               R   N=           5
 -1.00000000E+00 -5.60000000E+00 -5.60000000E+00 -4.55000000E+00 -5.60000000E+00
Nuclear ZNuc                               R   N=           5
  1.00000000E+00  8.00000000E+00  8.00000000E+00  7.00000000E+00  8.00000000E+00
Nuclear QMom                               R   N=           5
  0.00000000E+00  0.00000000E+00  0.00000000E+00  2.04400000E+00  0.00000000E+00
Nuclear GFac                               R   N=           5
  2.79284600E+00  0.00000000E+00  0.00000000E+00  4.03761000E-01  0.00000000E+00
MicOpt                                     I   N=           5
          -1          -1          -1          -1          -1
Number of residues                         I                0
Number of secondary structures             I                0
SymInf integers                            I   N=          26
           1           2           1           1           1           1
           1          -1           0           0           0           0
           0           0           0           0           0           0
           0           0           0           0           0           0
           0           0
RotTr to input orientation                 R   N=          12
 -9.95491151E-01 -8.63332664E-16 -9.48544561E-02  9.48544561E-02  7.70225725E-16
 -9.95491151E-01  9.32499370E-16 -1.00000000E+00 -6.84861944E-16  2.60458196E+00
  0.00000000E+00  3.46119200E+00
Number of contracted shells                I               65
Number of primitive shells                 I              119
Pure/Cartesian d shells                    I                0
Pure/Cartesian f shells                    I                0
Highest angular momentum                   I                3
Largest degree of contraction              I                7
Shell types                                I   N=          65
           0           0           0           0           1           1
           1          -2          -2           0           0           0
           0           0           1           1           1           1
          -2          -2          -2          -3          -3           0
           0           0           0           0           1           1
           1           1          -2          -2          -2          -3
          -3           0           0           0           0           0
           1           1           1           1          -2          -2
          -2          -3          -3           0           0           0
           0           0           1           1           1           1
          -2          -2          -2          -3          -3
Number of primitives per shell             I   N=          65
           3           1           1           1           1           1
           1           1           1           7           6           1
           1           1           3           1           1           1
           1           1           1           1           1           7
           6           1           1           1           3           1
           1           1           1           1           1           1
           1           7           6           1           1           1
           3           1           1           1           1           1
           1           1           1           7           6           1
           1           1           3           1           1           1
           1           1           1           1           1
Shell to atom map                          I   N=          65
           1           1           1           1           1           1
           1           1           1           2           2           2
           2           2           2           2           2           2
           2           2           2           2           2           3
           3           3           3           3           3           3
           3           3           3           3           3           3
           3           4           4           4           4           4
           4           4           4           4           4           4
           4           4           4           5           5           5
           5           5           5           5           5           5
           5           5           5           5           5
Primitive exponents                        R   N=         119
  3.38700000E+01  5.09500000E+00  1.15900000E+00  3.25800000E-01  1.02700000E-01
  2.52600000E-02  1.40700000E+00  3.88000000E-01  1.02000000E-01  1.05700000E+00
  2.47000000E-01  1.53300000E+04  2.29900000E+03  5.22400000E+02  1.47300000E+02
  4.75500000E+01  1.67600000E+01  6.20700000E+00  5.22400000E+02  1.47300000E+02
  4.75500000E+01  1.67600000E+01  6.20700000E+00  6.88200000E-01  1.75200000E+00
  2.38400000E-01  7.37600000E-02  3.44600000E+01  7.74900000E+00  2.28000000E+00
  7.15600000E-01  2.14000000E-01  5.97400000E-02  2.31400000E+00  6.45000000E-01
  2.14000000E-01  1.42800000E+00  5.00000000E-01  1.53300000E+04  2.29900000E+03
  5.22400000E+02  1.47300000E+02  4.75500000E+01  1.67600000E+01  6.20700000E+00
  5.22400000E+02  1.47300000E+02  4.75500000E+01  1.67600000E+01  6.20700000E+00
  6.88200000E-01  1.75200000E+00  2.38400000E-01  7.37600000E-02  3.44600000E+01
  7.74900000E+00  2.28000000E+00  7.15600000E-01  2.14000000E-01  5.97400000E-02
  2.31400000E+00  6.45000000E-01  2.14000000E-01  1.42800000E+00  5.00000000E-01
  1.14200000E+04  1.71200000E+03  3.89300000E+02  1.10000000E+02  3.55700000E+01
  1.25400000E+01  4.64400000E+00  3.89300000E+02  1.10000000E+02  3.55700000E+01
  1.25400000E+01  4.64400000E+00  5.11800000E-01  1.29300000E+00  1.78700000E-01
  5.76000000E-02  2.66300000E+01  5.94800000E+00  1.74200000E+00  5.55000000E-01
  1.72500000E-01  4.91000000E-02  1.65400000E+00  4.69000000E-01  1.51000000E-01
  1.09300000E+00  3.64000000E-01  1.53300000E+04  2.29900000E+03  5.22400000E+02
  1.47300000E+02  4.75500000E+01  1.67600000E+01  6.20700000E+00  5.22400000E+02
  1.47300000E+02  4.75500000E+01  1.67600000E+01  6.20700000E+00  6.88200000E-01
  1.75200000E+00  2.38400000E-01  7.37600000E-02  3.44600000E+01  7.74900000E+00
  2.28000000E+00  7.15600000E-01  2.14000000E-01  5.97400000E-02  2.31400000E+00
  6.45000000E-01  2.14000000E-01  1.42800000E+00  5.00000000E-01
Contraction coefficients                   R   N=         119
  2.54948632E-02  1.90362766E-01  8.52162022E-01  1.00000000E+00  1.00000000E+00
  1.00000000E+00  1.00000000E+00  1.00000000E+00  1.00000000E+00  1.00000000E+00
  1.00000000E+00  5.19808943E-04  4.02025621E-03  2.07128267E-02  8.10105536E-02
  2.35962985E-01  4.42653446E-01  3.57064423E-01 -4.42115008E-05 -1.22591041E-03
 -1.05517725E-02 -6.74452633E-02 -1.71198607E-01  1.07329856E+00  1.00000000E+00
  1.00000000E+00  1.00000000E+00  4.11634896E-02  2.57762836E-01  8.02419274E-01
  1.00000000E+00  1.00000000E+00  1.00000000E+00  1.00000000E+00  1.00000000E+00
  1.00000000E+00  1.00000000E+00  1.00000000E+00  5.19808943E-04  4.02025621E-03
  2.07128267E-02  8.10105536E-02  2.35962985E-01  4.42653446E-01  3.57064423E-01
 -4.42115008E-05 -1.22591041E-03 -1.05517725E-02 -6.74452633E-02 -1.71198607E-01
  1.07329856E+00  1.00000000E+00  1.00000000E+00  1.00000000E+00  4.11634896E-02
  2.57762836E-01  8.02419274E-01  1.00000000E+00  1.00000000E+00  1.00000000E+00
  1.00000000E+00  1.00000000E+00  1.00000000E+00  1.00000000E+00  1.00000000E+00
  5.34563860E-04  4.13435660E-03  2.12335358E-02  8.25006224E-02  2.38138871E-01
  4.42551547E-01  3.53757422E-01 -4.89867350E-05 -1.19527323E-03 -1.03490714E-02
 -6.48680190E-02 -1.71552477E-01  1.07289568E+00  1.00000000E+00  1.00000000E+00
  1.00000000E+00  3.98072123E-02  2.49002660E-01  8.10479727E-01  1.00000000E+00
  1.00000000E+00  1.00000000E+00  1.00000000E+00  1.00000000E+00  1.00000000E+00
  1.00000000E+00  1.00000000E+00  5.19808943E-04  4.02025621E-03  2.07128267E-02
  8.10105536E-02  2.35962985E-01  4.42653446E-01  3.57064423E-01 -4.42115008E-05
 -1.22591041E-03 -1.05517725E-02 -6.74452633E-02 -1.71198607E-01  1.07329856E+00
  1.00000000E+00  1.00000000E+00  1.00000000E+00  4.11634896E-02  2.57762836E-01
  8.02419274E-01  1.00000000E+00  1.00000000E+00  1.00000000E+00  1.00000000E+00
  1.00000000E+00  1.00000000E+00  1.00000000E+00  1.00000000E+00
Coordinates of each shell                  R   N=         195
  2.92114778E+00  3.19852980E+00  2.88047411E-31  2.92114778E+00  3.19852980E+00
  2.88047411E-31  2.92114778E+00  3.19852980E+00  2.88047411E-31  2.92114778E+00
  3.19852980E+00  2.88047411E-31  2.92114778E+00  3.19852980E+00  2.88047411E-31
  2.92114778E+00  3.19852980E+00  2.88047411E-31  2.92114778E+00  3.19852980E+00
  2.88047411E-31  2.92114778E+00  3.19852980E+00  2.88047411E-31  2.92114778E+00
  3.19852980E+00  2.88047411E-31  2.74745994E+00  1.37568752E+00  2.70920467E-31
  2.74745994E+00  1.37568752E+00  2.70920467E-31  2.74745994E+00  1.37568752E+00
  2.70920467E-31  2.74745994E+00  1.37568752E+00  2.70920467E-31  2.74745994E+00
  1.37568752E+00  2.70920467E-31  2.74745994E+00  1.37568752E+00  2.70920467E-31
  2.74745994E+00  1.37568752E+00  2.70920467E-31  2.74745994E+00  1.37568752E+00
  2.70920467E-31  2.74745994E+00  1.37568752E+00  2.70920467E-31  2.74745994E+00
  1.37568752E+00  2.70920467E-31  2.74745994E+00  1.37568752E+00  2.70920467E-31
  2.74745994E+00  1.37568752E+00  2.70920467E-31  2.74745994E+00  1.37568752E+00
  2.70920467E-31  2.74745994E+00  1.37568752E+00  2.70920467E-31  8.48958875E-18
  1.27244549E+00  0.00000000E+00  8.48958875E-18  1.27244549E+00  0.00000000E+00
  8.48958875E-18  1.27244549E+00  0.00000000E+00  8.48958875E-18  1.27244549E+00
  0.00000000E+00  8.48958875E-18  1.27244549E+00  0.00000000E+00  8.48958875E-18
  1.27244549E+00  0.00000000E+00  8.48958875E-18  1.27244549E+00  0.00000000E+00
  8.48958875E-18  1.27244549E+00  0.00000000E+00  8.48958875E-18  1.27244549E+00
  0.00000000E+00  8.48958875E-18  1.27244549E+00  0.00000000E+00  8.48958875E-18
  1.27244549E+00  0.00000000E+00  8.48958875E-18  1.27244549E+00  0.00000000E+00
  8.48958875E-18  1.27244549E+00  0.00000000E+00  8.48958875E-18  1.27244549E+00
  0.00000000E+00 -4.85589822E-01 -1.44115182E+00 -4.78828533E-32 -4.85589822E-01
 -1.44115182E+00 -4.78828533E-32 -4.85589822E-01 -1.44115182E+00 -4.78828533E-32
 -4.85589822E-01 -1.44115182E+00 -4.78828533E-32 -4.85589822E-01 -1.44115182E+00
 -4.78828533E-32 -4.85589822E-01 -1.44115182E+00 -4.78828533E-32 -4.85589822E-01
 -1.44115182E+00 -4.78828533E-32 -4.85589822E-01 -1.44115182E+00 -4.78828533E-32
 -4.85589822E-01 -1.44115182E+00 -4.78828533E-32 -4.85589822E-01 -1.44115182E+00
 -4.78828533E-32 -4.85589822E-01 -1.44115182E+00 -4.78828533E-32 -4.85589822E-01
 -1.44115182E+00 -4.78828533E-32 -4.85589822E-01 -1.44115182E+00 -4.78828533E-32
 -4.85589822E-01 -1.44115182E+00 -4.78828533E-32 -2.68771232E+00 -1.78694140E+00
 -2.65028896E-31 -2.68771232E+00 -1.78694140E+00 -2.65028896E-31 -2.68771232E+00
 -1.78694140E+00 -2.65028896E-31 -2.68771232E+00 -1.78694140E+00 -2.65028896E-31
 -2.68771232E+00 -1.78694140E+00 -2.65028896E-31 -2.68771232E+00 -1.78694140E+00
 -2.65028896E-31 -2.68771232E+00 -1.78694140E+00 -2.65028896E-31 -2.68771232E+00
 -1.78694140E+00 -2.65028896E-31 -2.68771232E+00 -1.78694140E+00 -2.65028896E-31
 -2.68771232E+00 -1.78694140E+00 -2.65028896E-31 -2.68771232E+00 -1.78694140E+00
 -2.65028896E-31 -2.68771232E+00 -1.78694140E+00 -2.65028896E-31 -2.68771232E+00
 -1.78694140E+00 -2.65028896E-31 -2.68771232E+00 -1.78694140E+00 -2.65028896E-31
Num ILSW                                   I              100
ILSW                                       I   N=         100
           0           0           0           0           2           0
           0           0           0           0           0          -1
           5           0           0           0           0           0
           0           0           0           0           0           0
           1           0           0           0           0           0
           0           0      100000           0          -1           0
           0           0           0           0           0           0
           0           0           0           1           0           0
           0 -2000000000           1           0           0           0
           0           0           4          52           0           0
           0           0           0           0           0           0
           0           0           0           5           0           1
           0           0           0           0           0           0
           0           0           0           0           0           0
           0           0           0           0           0           0
           0           0           0           0           0           0
           0           0           0           0
Num RLSW                                   I               52
RLSW                                       R   N=          52
  1.00000000E+00  1.00000000E+00  1.00000000E+00  1.00000000E+00  1.00000000E+00
  0.00000000E+00  0.00000000E+00  1.00000000E+00  0.00000000E+00  0.00000000E+00
  0.00000000E+00  0.00000000E+00  1.00000000E+00  0.00000000E+00  0.00000000E+00
  0.00000000E+00  0.00000000E+00  1.00000000E+00  0.00000000E+00  0.00000000E+00
  0.00000000E+00  0.00000000E+00  1.00000000E+00  0.00000000E+00  0.00000000E+00
  0.00000000E+00  0.00000000E+00  1.00000000E+00  0.00000000E+00  0.00000000E+00
  0.00000000E+00  0.00000000E+00  1.00000000E+00  0.00000000E+00  0.00000000E+00
  0.00000000E+00  0.00000000E+00  0.00000000E+00  1.00000000E+00  1.00000000E+00
  0.00000000E+00  1.00000000E+00  0.00000000E+00  0.00000000E+00  0.00000000E+00
  0.00000000E+00  0.00000000E+00  0.00000000E+00  0.00000000E+00  0.00000000E+00
  0.00000000E+00  0.00000000E+00
MxBond                                     I                2
NBond                                      I   N=           5
           1           2           2           2           1
IBond                                      I   N=          10
           2           0           1           3           2           4
           3           5           4           0
RBond                                      R   N=          10
  1.00000000E+00  0.00000000E+00  1.00000000E+00  1.00000000E+00  1.00000000E+00
  1.00000000E+00  1.00000000E+00  2.00000000E+00  2.00000000E+00  0.00000000E+00
Virial Ratio                               R      2.002500710326724E+00
SCF Energy                                 R     -2.795000583615733E+02
MP2 Energy                                 R     -2.804466298940158E+02
Total Energy                               R     -2.804466298940158E+02
Post-SCF wavefunction norm                 R      1.120849423761766E+00
RMS Density                                R      4.032794996385880E-09
Job Status                                 I                1
Nuclear derivative order                   I                0
External E-field                           R   N=          35
  0.00000000E+00  0.00000000E+00  0.00000000E+00  0.00000000E+00  0.00000000E+00
  0.00000000E+00  0.00000000E+00  0.00000000E+00  0.00000000E+00  0.00000000E+00
  0.00000000E+00  0.00000000E+00  0.00000000E+00  0.00000000E+00  0.00000000E+00
  0.00000000E+00  0.00000000E+00  0.00000000E+00  0.00000000E+00  0.00000000E+00
  0.00000000E+00  0.00000000E+00  0.00000000E+00  0.00000000E+00  0.00000000E+00
  0.00000000E+00  0.00000000E+00  0.00000000E+00  0.00000000E+00  0.00000000E+00
  0.00000000E+00  0.00000000E+00  0.00000000E+00  0.00000000E+00  0.00000000E+00
IOpCl                                      I                0
IROHF                                      I                0
Alpha Orbital Energies                     R   N=         207
 -2.06929379E+01 -2.06839354E+01 -2.06611037E+01 -1.58141207E+01 -1.61701548E+00
 -1.49551861E+00 -1.25529307E+00 -9.49287842E-01 -7.71820187E-01 -7.56864771E-01
 -7.10119286E-01 -6.78261903E-01 -6.18591737E-01 -5.89985030E-01 -4.85940249E-01
 -4.74214252E-01  2.93885188E-02  6.89453705E-02  8.60849539E-02  1.01720591E-01
  1.33827942E-01  1.34122302E-01  1.43893377E-01  1.54315715E-01  1.78106575E-01
  1.94271536E-01  1.99489064E-01  2.06347917E-01  2.20512607E-01  2.34693920E-01
  2.37320474E-01  2.65947872E-01  2.92536629E-01  3.03535898E-01  3.10049252E-01
  3.43524046E-01  3.49433365E-01  3.86876024E-01  4.21575940E-01  4.31521487E-01
  5.27506708E-01  5.27829699E-01  5.57908729E-01  5.81439071E-01  6.21076368E-01
  6.38714109E-01  6.77193430E-01  6.83884451E-01  7.06313284E-01  7.10929630E-01
  7.23806372E-01  7.28879894E-01  7.44690590E-01  7.91071852E-01  7.91490948E-01
  8.10638708E-01  8.11896020E-01  8.28297552E-01  8.67477661E-01  9.07463000E-01
  9.21129674E-01  9.25488321E-01  9.56127752E-01  9.75604984E-01  9.83871791E-01
  1.01603105E+00  1.05142287E+00  1.05420725E+00  1.08067269E+00  1.11644540E+00
  1.14034249E+00  1.18896100E+00  1.21950731E+00  1.23135637E+00  1.33817640E+00
  1.34987520E+00  1.38480883E+00  1.45297921E+00  1.48733532E+00  1.50788010E+00
  1.53775891E+00  1.56692213E+00  1.57992373E+00  1.61258469E+00  1.66203419E+00
  1.66926180E+00  1.70356623E+00  1.79269692E+00  1.83202141E+00  1.83435989E+00
  1.87591740E+00  1.91003401E+00  1.95850530E+00  1.98986461E+00  2.00616596E+00
  2.07736431E+00  2.12069859E+00  2.13113585E+00  2.14895575E+00  2.22396346E+00
  2.26359136E+00  2.26413576E+00  2.28872556E+00  2.31326435E+00  2.34122730E+00
  2.38532338E+00  2.42242329E+00  2.42668726E+00  2.45397261E+00  2.46164037E+00
  2.47532833E+00  2.49950275E+00  2.58822026E+00  2.59487326E+00  2.61913482E+00
  2.62113220E+00  2.63339692E+00  2.66490265E+00  2.75401556E+00  2.82081875E+00
  2.85142917E+00  2.88006585E+00  2.89201355E+00  2.92092458E+00  2.95583462E+00
  3.02309851E+00  3.06947720E+00  3.11876089E+00  3.20382564E+00  3.22422245E+00
  3.31491513E+00  3.34036507E+00  3.51313293E+00  3.64256898E+00  3.83705251E+00
  3.84155713E+00  4.14757319E+00  4.16161931E+00  4.18230517E+00  4.23653995E+00
  4.35057225E+00  4.39181553E+00  4.46081670E+00  4.51735886E+00  4.65098899E+00
  4.70889596E+00  4.80025344E+00  4.82294323E+00  4.82688600E+00  4.89629047E+00
  5.02455791E+00  5.07668698E+00  5.09987059E+00  5.14819406E+00  5.17598670E+00
  5.23898401E+00  5.27130720E+00  5.30839542E+00  5.32805276E+00  5.34817376E+00
  5.60413846E+00  5.65909235E+00  5.76122546E+00  5.82524338E+00  5.96098084E+00
  6.16621887E+00  6.30700076E+00  6.33738302E+00  6.39308905E+00  6.49360842E+00
  6.50527085E+00  6.61242462E+00  6.66677093E+00  6.69589356E+00  6.75625460E+00
  6.76176529E+00  6.82720369E+00  6.89489190E+00  7.01052537E+00  7.05364720E+00
  7.05534743E+00  7.08871934E+00  7.12004267E+00  7.14729441E+00  7.18024223E+00
  7.21852328E+00  7.23963738E+00  7.30223989E+00  7.30629884E+00  7.34175626E+00
  7.39287457E+00  7.42987248E+00  7.48328555E+00  7.60212087E+00  7.60599324E+00
  7.61759960E+00  7.66336336E+00  7.78143190E+00  7.87229278E+00  8.08911822E+00
  8.31110636E+00  8.40807484E+00  8.54215320E+00  1.33724310E+01  1.43207479E+01
  1.51574245E+01  1.58904796E+01
Alpha MO coefficients                      R   N=       42849
  9.16050933E-05 -6.49029955E-04 -7.25830235E-04 -5.16546293E-06 -2.13001767E-05
 -2.66661284E-05  0.00000000E+00 -4.39350438E-05  6.18940784E-05  0.00000000E+00
  8.57722564E-05  3.53553432E-05  0.00000000E+00  3.17702863E-05  0.00000000E+00
  0.00000000E+00 -4.96449427E-05  2.09364423E-05 -6.01492669E-06  0.00000000E+00
  0.00000000E+00 -1.39102103E-04  1.17659440E-04  4.44985292E-03 -2.80976455E-04
  8.66629469E-06  1.56559361E-03  1.82276643E-03  1.06287076E-04  7.60540072E-06
  0.00000000E+00 -6.17036532E-04 -3.74759978E-05  0.00000000E+00 -1.10403105E-03
  7.99789870E-04  0.00000000E+00 -4.02486369E-04  6.39240656E-05  0.00000000E+00
  2.88340494E-05  0.00000000E+00  0.00000000E+00 -5.40326197E-05  5.33676699E-06
 -3.78522403E-04  0.00000000E+00  0.00000000E+00  7.39396680E-04 -2.66492643E-05
 -4.46891714E-04  0.00000000E+00  0.00000000E+00  2.40745832E-04 -1.70201758E-05
  0.00000000E+00  7.99903584E-05  1.29876776E-05  0.00000000E+00  0.00000000E+00
 -1.09445693E-04 -4.47853376E-06  0.00000000E+00  2.54448876E-04 -2.72656748E-05
  0.00000000E+00  0.00000000E+00 -3.54022084E-04  4.63283525E-05  9.76916225E-01
 -9.21416345E-03  4.33147032E-02  2.01287462E-03 -9.28968606E-04  1.49729776E-03
 -1.36346607E-03  0.00000000E+00 -1.43788281E-03  1.39242980E-03  0.00000000E+00
  8.13472132E-05 -1.16072991E-03  0.00000000E+00 -1.36537090E-04 -1.21891618E-05
  0.00000000E+00  4.64704690E-05  0.00000000E+00  0.00000000E+00 -3.47877490E-05
  2.06550911E-05  7.49136244E-04  0.00000000E+00  0.00000000E+00 -2.25397660E-04
 -3.91602990E-04 -3.59578788E-04  0.00000000E+00  0.00000000E+00 -3.12690939E-04
 -3.78316220E-04  0.00000000E+00  4.74577735E-05 -4.93348015E-05  0.00000000E+00
  0.00000000E+00 -3.89660889E-05 -1.64362299E-05  0.00000000E+00  2.35564066E-05
  2.23995300E-05  0.00000000E+00  0.00000000E+00 -3.03629184E-04 -1.43499265E-04
  4.02879698E-05  5.28400851E-05 -2.64656803E-04 -6.75001764E-04 -1.25480625E-04
 -2.72460099E-05 -9.85166001E-05  0.00000000E+00  2.62880965E-04  7.13850747E-04
  0.00000000E+00 -8.26996220E-04 -4.56846925E-04  0.00000000E+00 -1.24122357E-04
 -2.37262014E-05  0.00000000E+00 -1.81972117E-05  0.00000000E+00  0.00000000E+00
 -2.90252778E-05  1.48267142E-05 -3.31322295E-04  0.00000000E+00  0.00000000E+00
 -8.32745527E-04  1.24570959E-04 -3.90937283E-05  0.00000000E+00  0.00000000E+00
  9.20139735E-05 -1.16333065E-04  0.00000000E+00 -2.06232880E-05 -1.20575564E-04
  0.00000000E+00  0.00000000E+00 -6.18301011E-05 -1.39650470E-04  0.00000000E+00
  2.51358335E-06 -1.54487303E-04  0.00000000E+00  0.00000000E+00  4.55671673E-05
 -4.18768415E-04 -1.85544854E-03  1.14271843E-04 -9.21606197E-05 -2.46840198E-04
  1.21868521E-04 -6.11462027E-06 -2.77772225E-05  0.00000000E+00  6.56998762E-05
  1.63474745E-04  0.00000000E+00  2.19191944E-04  1.91781306E-04  0.00000000E+00
  1.23207627E-04  2.16076935E-05  0.00000000E+00 -3.66581973E-06  0.00000000E+00
  0.00000000E+00 -1.72459268E-05  8.68713638E-07  5.85809976E-07  0.00000000E+00
  0.00000000E+00  7.60129548E-05  8.99716520E-05 -9.72123514E-05  0.00000000E+00
  0.00000000E+00  1.62670053E-04  1.57650270E-04  0.00000000E+00  1.59177551E-05
 -3.97647311E-06  0.00000000E+00  0.00000000E+00 -5.22537825E-06 -1.16654928E-05
  0.00000000E+00 -3.32346422E-05  4.51493607E-05  0.00000000E+00  0.00000000E+00
  8.24649412E-05  9.10274525E-05  3.81002563E-05 -9.98922635E-04 -5.00841565E-04
 -1.27835639E-05 -2.24086165E-05  1.66736670E-05  0.00000000E+00 -2.13370987E-06
  2.78650035E-04  0.00000000E+00 -4.43184885E-05  1.37236474E-04  0.00000000E+00
  2.60857639E-05  0.00000000E+00  0.00000000E+00  1.29405255E-05  1.15290273E-05
 -2.73165100E-05  0.00000000E+00  0.00000000E+00  1.05899825E-05  3.61720633E-05
  1.13930421E-04  8.38259998E-05 -2.77051771E-05  7.51752457E-04  6.63182486E-04
  9.59067793E-06  2.75178411E-06  0.00000000E+00 -6.88975850E-05  1.56499839E-05
  0.00000000E+00  3.44014852E-04  9.01989102E-04  0.00000000E+00  6.46406544E-06
  8.64142164E-05  0.00000000E+00 -2.17794559E-06  0.00000000E+00  0.00000000E+00
  2.56284341E-07 -6.52502750E-06 -3.57507397E-05  0.00000000E+00  0.00000000E+00
 -2.55220502E-05  8.70530983E-05 -2.11044402E-05  0.00000000E+00  0.00000000E+00
 -2.70495929E-04 -1.57755210E-04  0.00000000E+00  9.21832996E-06  6.23426433E-06
  0.00000000E+00  0.00000000E+00  3.49024470E-06 -1.92219604E-05  0.00000000E+00
 -4.19019036E-05 -3.91066536E-05  0.00000000E+00  0.00000000E+00 -7.66612147E-05
  1.77742555E-05  1.89440404E-03  4.72690291E-05  5.79765549E-05 -6.51652152E-05
 -4.76962586E-04  7.00280662E-06  1.66921629E-05  0.00000000E+00 -6.45119532E-05
 -5.85481605E-05  0.00000000E+00  2.28225183E-04 -1.63913984E-04  0.00000000E+00
 -1.93983362E-04 -6.49993215E-05  0.00000000E+00 -8.74208086E-06  0.00000000E+00
  0.00000000E+00  2.12331775E-05  1.80491396E-05  2.70480151E-06  0.00000000E+00
  0.00000000E+00 -1.10964350E-04 -3.53972863E-05 -2.88684985E-06  0.00000000E+00
  0.00000000E+00 -2.14117348E-04 -1.88576352E-04  0.00000000E+00  3.59851322E-06
 -9.46108302E-08  0.00000000E+00  0.00000000E+00  1.98955146E-06 -1.55229222E-05
  0.00000000E+00 -4.66760898E-05  5.55737792E-07  0.00000000E+00  0.00000000E+00
 -6.81636085E-05  1.88747063E-04  2.56401643E-04  1.44938458E-03 -1.16089350E-04
 -1.35879567E-03  4.45831153E-04 -1.22244274E-04  3.73429635E-06  0.00000000E+00
 -2.11481274E-03 -4.21445479E-04  0.00000000E+00  9.47630222E-04  7.60303157E-04
  0.00000000E+00 -1.79134706E-04  5.47948052E-05  0.00000000E+00 -1.25386077E-04
  0.00000000E+00  0.00000000E+00  2.44479162E-04  9.50101871E-05 -4.66633710E-04
  0.00000000E+00  0.00000000E+00  9.44679816E-04 -3.15663910E-05 -7.44224257E-07
  0.00000000E+00  0.00000000E+00 -3.12742797E-04 -1.14431619E-04  0.00000000E+00
  1.27534619E-05  1.80988382E-05  0.00000000E+00  0.00000000E+00  2.05829967E-06
  4.03635290E-06  0.00000000E+00  1.68762625E-04 -7.18002373E-05  0.00000000E+00
  0.00000000E+00 -2.61590016E-04  4.30997137E-05  9.76665830E-01 -9.85786129E-03
  4.35434586E-02  4.33653334E-03 -5.04735798E-04  2.13788263E-03  4.85679541E-04
  0.00000000E+00 -2.42025251E-03 -6.14660689E-04  0.00000000E+00  1.10241091E-03
 -1.10189930E-05  0.00000000E+00 -1.59117148E-06 -4.48405794E-05  0.00000000E+00
 -2.26238982E-04  0.00000000E+00  0.00000000E+00  9.21801929E-05  2.88784142E-05
  3.96236745E-04  0.00000000E+00  0.00000000E+00 -8.46197520E-04 -4.27329357E-04
 -1.61398167E-04  0.00000000E+00  0.00000000E+00  2.66501805E-04  1.84319856E-05
  0.00000000E+00  5.72455379E-05  1.84219023E-05  0.00000000E+00  0.00000000E+00
 -2.81277133E-05 -1.61458891E-05  0.00000000E+00  1.32741933E-04  8.82310601E-06
  0.00000000E+00  0.00000000E+00 -1.86216580E-04 -1.40400293E-04  4.74768521E-04
  2.05896776E-03  1.13324666E-04  1.53638135E-05 -4.04579401E-05 -2.46894598E-04
  0.00000000E+00  1.15731204E-04 -1.27424076E-03  0.00000000E+00  3.13526461E-04
 -3.36354023E-04  0.00000000E+00 -2.67810185E-06  0.00000000E+00  0.00000000E+00
  7.58690138E-05  1.60298986E-05 -1.60056674E-04  0.00000000E+00  0.00000000E+00
 -5.37320964E-04 -2.73588253E-05  9.76831015E-01 -9.16314074E-03  4.34494109E-02
  1.62482841E-04 -1.14054482E-03 -1.56816512E-03  1.43773004E-03  0.00000000E+00
  1.57953416E-03 -1.28022593E-03  0.00000000E+00 -5.65878064E-04 -8.65447565E-04
  0.00000000E+00  5.50607259E-05 -3.36797694E-05  0.00000000E+00  2.96751298E-05
  0.00000000E+00  0.00000000E+00 -1.18227220E-04 -3.75830007E-06  7.57738342E-04
  0.00000000E+00  0.00000000E+00 -2.01490540E-04 -2.36602166E-04 -2.66535292E-04
  0.00000000E+00  0.00000000E+00  1.67752274E-04  1.28430385E-04  0.00000000E+00
 -6.42012886E-05  1.10590397E-06  0.00000000E+00  0.00000000E+00  1.88268208E-05
  1.00265473E-05  0.00000000E+00 -1.55326301E-06  1.22681907E-04  0.00000000E+00
  0.00000000E+00  2.56182495E-04  9.39228815E-05 -4.54216083E-03 -2.12584166E-04