title                                                                   
SP        RMP2-FC                                                     Aug-CC-pVTZ         
Number of atoms                            I                5
Info1-9                                    I   N=           9
          33          24           0           0           0         110
           1           2           1
Full Title                                 C   N=           1
title       
Route                                      C   N=           4
#p SP mp2/aug-cc-pvtz density=current           
Charge                                     I                0
Multiplicity                               I                1
Number of electrons                        I               32
Number of alpha electrons                  I               16
Number of beta electrons                   I               16
Number of basis functions                  I              207
Number of independent functions            I              207
Number of point charges in /Mol/           I                0
Number of translation vectors              I                0
Atomic numbers                             I   N=           5
           1           8           8           7           8
Nuclear charges                            R   N=           5
  1.00000000E+00  8.00000000E+00  8.00000000E+00  7.00000000E+00  8.00000000E+00
Current cartesian coordinates              R   N=          15
  2.92481410E+00  3.18042071E+00  9.74488457E-31  2.74765175E+00  1.35791283E+00
  1.09113742E-30  1.06463044E-16  1.25990838E+00  1.48524830E-31 -4.90761771E-01
 -1.45275834E+00 -4.04928401E-31 -2.68383696E+00 -1.74421025E+00 -1.06689290E-30
Number of symbols in /Mol/                 I                0
Force Field                                I                0
Atom Types                                 C   N=           5
                                                            
Int Atom Types                             I   N=           5
           0           0           0           0           0
MM charges                                 R   N=           5
  0.00000000E+00  0.00000000E+00  0.00000000E+00  0.00000000E+00  0.00000000E+00
Integer atomic weights                     I   N=           5
           1          16          16          14          16
Real atomic weights                        R   N=           5
  1.00782504E+00  1.59949146E+01  1.59949146E+01  1.40030740E+01  1.59949146E+01
Atom fragment info                         I   N=           5
           0           0           0           0           0
Atom residue num                           I   N=           5
           0           0           0           0           0
Nuclear spins                              I   N=           5
           1           0           0           2           0
Nuclear ZEff                               R   N=           5
 -1.00000000E+00 -5.60000000E+00 -5.60000000E+00 -4.55000000E+00 -5.60000000E+00
Nuclear ZNuc                               R   N=           5
  1.00000000E+00  8.00000000E+00  8.00000000E+00  7.00000000E+00  8.00000000E+00
Nuclear QMom                               R   N=           5
  0.00000000E+00  0.00000000E+00  0.00000000E+00  2.04400000E+00  0.00000000E+00
Nuclear GFac                               R   N=           5
  2.79284600E+00  0.00000000E+00  0.00000000E+00  4.03761000E-01  0.00000000E+00
MicOpt                                     I   N=           5
          -1          -1          -1          -1          -1
Number of residues                         I                0
Number of secondary structures             I                0
SymInf integers                            I   N=          26
           1           2           1           1           1           1
           1          -1           0           0           0           0
           0           0           0           0           0           0
           0           0           0           0           0           0
           0           0
RotTr to input orientation                 R   N=          12
 -9.95308525E-01 -8.52002119E-16 -9.67519518E-02  9.67519518E-02  7.64967138E-16
 -9.95308525E-01  9.22017036E-16 -1.00000000E+00 -6.78945446E-16  2.60338049E+00
  0.00000000E+00  3.44848132E+00
Number of contracted shells                I               65
Number of primitive shells                 I              119
Pure/Cartesian d shells                    I                0
Pure/Cartesian f shells                    I                0
Highest angular momentum                   I                3
Largest degree of contraction              I                7
Shell types                                I   N=          65
           0           0           0           0           1           1
           1          -2          -2           0           0           0
           0           0           1           1           1           1
          -2          -2          -2          -3          -3           0
           0           0           0           0           1           1
           1           1          -2          -2          -2          -3
          -3           0           0           0           0           0
           1           1           1           1          -2          -2
          -2          -3          -3           0           0           0
           0           0           1           1           1           1
          -2          -2          -2          -3          -3
Number of primitives per shell             I   N=          65
           3           1           1           1           1           1
           1           1           1           7           6           1
           1           1           3           1           1           1
           1           1           1           1           1           7
           6           1           1           1           3           1
           1           1           1           1           1           1
           1           7           6           1           1           1
           3           1           1           1           1           1
           1           1           1           7           6           1
           1           1           3           1           1           1
           1           1           1           1           1
Shell to atom map                          I   N=          65
           1           1           1           1           1           1
           1           1           1           2           2           2
           2           2           2           2           2           2
           2           2           2           2           2           3
           3           3           3           3           3           3
           3           3           3           3           3           3
           3           4           4           4           4           4
           4           4           4           4           4           4
           4           4           4           5           5           5
           5           5           5           5           5           5
           5           5           5           5           5
Primitive exponents                        R   N=         119
  3.38700000E+01  5.09500000E+00  1.15900000E+00  3.25800000E-01  1.02700000E-01
  2.52600000E-02  1.40700000E+00  3.88000000E-01  1.02000000E-01  1.05700000E+00
  2.47000000E-01  1.53300000E+04  2.29900000E+03  5.22400000E+02  1.47300000E+02
  4.75500000E+01  1.67600000E+01  6.20700000E+00  5.22400000E+02  1.47300000E+02
  4.75500000E+01  1.67600000E+01  6.20700000E+00  6.88200000E-01  1.75200000E+00
  2.38400000E-01  7.37600000E-02  3.44600000E+01  7.74900000E+00  2.28000000E+00
  7.15600000E-01  2.14000000E-01  5.97400000E-02  2.31400000E+00  6.45000000E-01
  2.14000000E-01  1.42800000E+00  5.00000000E-01  1.53300000E+04  2.29900000E+03
  5.22400000E+02  1.47300000E+02  4.75500000E+01  1.67600000E+01  6.20700000E+00
  5.22400000E+02  1.47300000E+02  4.75500000E+01  1.67600000E+01  6.20700000E+00
  6.88200000E-01  1.75200000E+00  2.38400000E-01  7.37600000E-02  3.44600000E+01
  7.74900000E+00  2.28000000E+00  7.15600000E-01  2.14000000E-01  5.97400000E-02
  2.31400000E+00  6.45000000E-01  2.14000000E-01  1.42800000E+00  5.00000000E-01
  1.14200000E+04  1.71200000E+03  3.89300000E+02  1.10000000E+02  3.55700000E+01
  1.25400000E+01  4.64400000E+00  3.89300000E+02  1.10000000E+02  3.55700000E+01
  1.25400000E+01  4.64400000E+00  5.11800000E-01  1.29300000E+00  1.78700000E-01
  5.76000000E-02  2.66300000E+01  5.94800000E+00  1.74200000E+00  5.55000000E-01
  1.72500000E-01  4.91000000E-02  1.65400000E+00  4.69000000E-01  1.51000000E-01
  1.09300000E+00  3.64000000E-01  1.53300000E+04  2.29900000E+03  5.22400000E+02
  1.47300000E+02  4.75500000E+01  1.67600000E+01  6.20700000E+00  5.22400000E+02
  1.47300000E+02  4.75500000E+01  1.67600000E+01  6.20700000E+00  6.88200000E-01
  1.75200000E+00  2.38400000E-01  7.37600000E-02  3.44600000E+01  7.74900000E+00
  2.28000000E+00  7.15600000E-01  2.14000000E-01  5.97400000E-02  2.31400000E+00
  6.45000000E-01  2.14000000E-01  1.42800000E+00  5.00000000E-01
Contraction coefficients                   R   N=         119
  2.54948632E-02  1.90362766E-01  8.52162022E-01  1.00000000E+00  1.00000000E+00
  1.00000000E+00  1.00000000E+00  1.00000000E+00  1.00000000E+00  1.00000000E+00
  1.00000000E+00  5.19808943E-04  4.02025621E-03  2.07128267E-02  8.10105536E-02
  2.35962985E-01  4.42653446E-01  3.57064423E-01 -4.42115008E-05 -1.22591041E-03
 -1.05517725E-02 -6.74452633E-02 -1.71198607E-01  1.07329856E+00  1.00000000E+00
  1.00000000E+00  1.00000000E+00  4.11634896E-02  2.57762836E-01  8.02419274E-01
  1.00000000E+00  1.00000000E+00  1.00000000E+00  1.00000000E+00  1.00000000E+00
  1.00000000E+00  1.00000000E+00  1.00000000E+00  5.19808943E-04  4.02025621E-03
  2.07128267E-02  8.10105536E-02  2.35962985E-01  4.42653446E-01  3.57064423E-01
 -4.42115008E-05 -1.22591041E-03 -1.05517725E-02 -6.74452633E-02 -1.71198607E-01
  1.07329856E+00  1.00000000E+00  1.00000000E+00  1.00000000E+00  4.11634896E-02
  2.57762836E-01  8.02419274E-01  1.00000000E+00  1.00000000E+00  1.00000000E+00
  1.00000000E+00  1.00000000E+00  1.00000000E+00  1.00000000E+00  1.00000000E+00
  5.34563860E-04  4.13435660E-03  2.12335358E-02  8.25006224E-02  2.38138871E-01
  4.42551547E-01  3.53757422E-01 -4.89867350E-05 -1.19527323E-03 -1.03490714E-02
 -6.48680190E-02 -1.71552477E-01  1.07289568E+00  1.00000000E+00  1.00000000E+00
  1.00000000E+00  3.98072123E-02  2.49002660E-01  8.10479727E-01  1.00000000E+00
  1.00000000E+00  1.00000000E+00  1.00000000E+00  1.00000000E+00  1.00000000E+00
  1.00000000E+00  1.00000000E+00  5.19808943E-04  4.02025621E-03  2.07128267E-02
  8.10105536E-02  2.35962985E-01  4.42653446E-01  3.57064423E-01 -4.42115008E-05
 -1.22591041E-03 -1.05517725E-02 -6.74452633E-02 -1.71198607E-01  1.07329856E+00
  1.00000000E+00  1.00000000E+00  1.00000000E+00  4.11634896E-02  2.57762836E-01
  8.02419274E-01  1.00000000E+00  1.00000000E+00  1.00000000E+00  1.00000000E+00
  1.00000000E+00  1.00000000E+00  1.00000000E+00  1.00000000E+00
Coordinates of each shell                  R   N=         195
  2.92481410E+00  3.18042071E+00  7.98478705E-31  2.92481410E+00  3.18042071E+00
  7.98478705E-31  2.92481410E+00  3.18042071E+00  7.98478705E-31  2.92481410E+00
  3.18042071E+00  7.98478705E-31  2.92481410E+00  3.18042071E+00  7.98478705E-31
  2.92481410E+00  3.18042071E+00  7.98478705E-31  2.92481410E+00  3.18042071E+00
  7.98478705E-31  2.92481410E+00  3.18042071E+00  7.98478705E-31  2.92481410E+00
  3.18042071E+00  7.98478705E-31  2.74765175E+00  1.35791283E+00  5.10168780E-31
  2.74765175E+00  1.35791283E+00  5.10168780E-31  2.74765175E+00  1.35791283E+00
  5.10168780E-31  2.74765175E+00  1.35791283E+00  5.10168780E-31  2.74765175E+00
  1.35791283E+00  5.10168780E-31  2.74765175E+00  1.35791283E+00  5.10168780E-31
  2.74765175E+00  1.35791283E+00  5.10168780E-31  2.74765175E+00  1.35791283E+00
  5.10168780E-31  2.74765175E+00  1.35791283E+00  5.10168780E-31  2.74765175E+00
  1.35791283E+00  5.10168780E-31  2.74765175E+00  1.35791283E+00  5.10168780E-31
  2.74765175E+00  1.35791283E+00  5.10168780E-31  2.74765175E+00  1.35791283E+00
  5.10168780E-31  2.74765175E+00  1.35791283E+00  5.10168780E-31 -1.29741504E-17
  1.25990838E+00  1.85480557E-31 -1.29741504E-17  1.25990838E+00  1.85480557E-31
 -1.29741504E-17  1.25990838E+00  1.85480557E-31 -1.29741504E-17  1.25990838E+00
  1.85480557E-31 -1.29741504E-17  1.25990838E+00  1.85480557E-31 -1.29741504E-17
  1.25990838E+00  1.85480557E-31 -1.29741504E-17  1.25990838E+00  1.85480557E-31
 -1.29741504E-17  1.25990838E+00  1.85480557E-31 -1.29741504E-17  1.25990838E+00
  1.85480557E-31 -1.29741504E-17  1.25990838E+00  1.85480557E-31 -1.29741504E-17
  1.25990838E+00  1.85480557E-31 -1.29741504E-17  1.25990838E+00  1.85480557E-31
 -1.29741504E-17  1.25990838E+00  1.85480557E-31 -1.29741504E-17  1.25990838E+00
  1.85480557E-31 -4.90761771E-01 -1.45275834E+00 -2.69287447E-31 -4.90761771E-01
 -1.45275834E+00 -2.69287447E-31 -4.90761771E-01 -1.45275834E+00 -2.69287447E-31
 -4.90761771E-01 -1.45275834E+00 -2.69287447E-31 -4.90761771E-01 -1.45275834E+00
 -2.69287447E-31 -4.90761771E-01 -1.45275834E+00 -2.69287447E-31 -4.90761771E-01
 -1.45275834E+00 -2.69287447E-31 -4.90761771E-01 -1.45275834E+00 -2.69287447E-31
 -4.90761771E-01 -1.45275834E+00 -2.69287447E-31 -4.90761771E-01 -1.45275834E+00
 -2.69287447E-31 -4.90761771E-01 -1.45275834E+00 -2.69287447E-31 -4.90761771E-01
 -1.45275834E+00 -2.69287447E-31 -4.90761771E-01 -1.45275834E+00 -2.69287447E-31
 -4.90761771E-01 -1.45275834E+00 -2.69287447E-31 -2.68383696E+00 -1.74421025E+00
 -5.59832660E-31 -2.68383696E+00 -1.74421025E+00 -5.59832660E-31 -2.68383696E+00
 -1.74421025E+00 -5.59832660E-31 -2.68383696E+00 -1.74421025E+00 -5.59832660E-31
 -2.68383696E+00 -1.74421025E+00 -5.59832660E-31 -2.68383696E+00 -1.74421025E+00
 -5.59832660E-31 -2.68383696E+00 -1.74421025E+00 -5.59832660E-31 -2.68383696E+00
 -1.74421025E+00 -5.59832660E-31 -2.68383696E+00 -1.74421025E+00 -5.59832660E-31
 -2.68383696E+00 -1.74421025E+00 -5.59832660E-31 -2.68383696E+00 -1.74421025E+00
 -5.59832660E-31 -2.68383696E+00 -1.74421025E+00 -5.59832660E-31 -2.68383696E+00
 -1.74421025E+00 -5.59832660E-31 -2.68383696E+00 -1.74421025E+00 -5.59832660E-31
Num ILSW                                   I              100
ILSW                                       I   N=         100
           0           0           0           0           2           0
           0           0           0           0           0          -1
           5           0           0           0           0           0
           0           0           0           0           0           0
           1           0           0           0           0           0
           0           0      100000           0          -1           0
           0           0           0           0           0           0
           0           0           0           1           0           0
           0 -2000000000           1           0           0           0
           0           0           4          52           0           0
           0           0           0           0           0           0
           0           0           0           5           0           1
           0           0           0           0           0           0
           0           0           0           0           0           0
           0           0           0           0           0           0
           0           0           0           0           0           0
           0           0           0           0
Num RLSW                                   I               52
RLSW                                       R   N=          52
  1.00000000E+00  1.00000000E+00  1.00000000E+00  1.00000000E+00  1.00000000E+00
  0.00000000E+00  0.00000000E+00  1.00000000E+00  0.00000000E+00  0.00000000E+00
  0.00000000E+00  0.00000000E+00  1.00000000E+00  0.00000000E+00  0.00000000E+00
  0.00000000E+00  0.00000000E+00  1.00000000E+00  0.00000000E+00  0.00000000E+00
  0.00000000E+00  0.00000000E+00  1.00000000E+00  0.00000000E+00  0.00000000E+00
  0.00000000E+00  0.00000000E+00  1.00000000E+00  0.00000000E+00  0.00000000E+00
  0.00000000E+00  0.00000000E+00  1.00000000E+00  0.00000000E+00  0.00000000E+00
  0.00000000E+00  0.00000000E+00  0.00000000E+00  1.00000000E+00  1.00000000E+00
  0.00000000E+00  1.00000000E+00  0.00000000E+00  0.00000000E+00  0.00000000E+00
  0.00000000E+00  0.00000000E+00  0.00000000E+00  0.00000000E+00  0.00000000E+00
  0.00000000E+00  0.00000000E+00
MxBond                                     I                2
NBond                                      I   N=           5
           1           2           2           2           1
IBond                                      I   N=          10
           2           0           1           3           2           4
           3           5           4           0
RBond                                      R   N=          10
  1.00000000E+00  0.00000000E+00  1.00000000E+00  1.00000000E+00  1.00000000E+00
  1.00000000E+00  1.00000000E+00  2.00000000E+00  2.00000000E+00  0.00000000E+00
Virial Ratio                               R      2.002321885046129E+00
SCF Energy                                 R     -2.795016450141018E+02
MP2 Energy                                 R     -2.804466205588012E+02
Total Energy                               R     -2.804466205588012E+02
Post-SCF wavefunction norm                 R      1.120171000795101E+00
RMS Density                                R      3.738260140995735E-09
Job Status                                 I                1
Nuclear derivative order                   I                0
External E-field                           R   N=          35
  0.00000000E+00  0.00000000E+00  0.00000000E+00  0.00000000E+00  0.00000000E+00
  0.00000000E+00  0.00000000E+00  0.00000000E+00  0.00000000E+00  0.00000000E+00
  0.00000000E+00  0.00000000E+00  0.00000000E+00  0.00000000E+00  0.00000000E+00
  0.00000000E+00  0.00000000E+00  0.00000000E+00  0.00000000E+00  0.00000000E+00
  0.00000000E+00  0.00000000E+00  0.00000000E+00  0.00000000E+00  0.00000000E+00
  0.00000000E+00  0.00000000E+00  0.00000000E+00  0.00000000E+00  0.00000000E+00
  0.00000000E+00  0.00000000E+00  0.00000000E+00  0.00000000E+00  0.00000000E+00
IOpCl                                      I                0
IROHF                                      I                0
Alpha Orbital Energies                     R   N=         207
 -2.06903630E+01 -2.06838542E+01 -2.06591680E+01 -1.58132589E+01 -1.62508552E+00
 -1.49481149E+00 -1.25338457E+00 -9.48401574E-01 -7.72091674E-01 -7.59614544E-01
 -7.12039401E-01 -6.79042984E-01 -6.19957138E-01 -5.88323222E-01 -4.84628939E-01
 -4.73971034E-01  2.97257753E-02  7.11425880E-02  8.61838961E-02  1.01692548E-01
  1.33881502E-01  1.33884145E-01  1.44143219E-01  1.54442879E-01  1.78391994E-01
  1.94116135E-01  1.99857481E-01  2.06587617E-01  2.20789612E-01  2.36661921E-01
  2.37550264E-01  2.66934150E-01  2.92410999E-01  3.03517193E-01  3.10248517E-01
  3.43811393E-01  3.49580357E-01  3.87629607E-01  4.22520012E-01  4.32088083E-01
  5.28300929E-01  5.28469553E-01  5.58011162E-01  5.80418466E-01  6.25253752E-01
  6.40834585E-01  6.74784672E-01  6.84654310E-01  7.04618542E-01  7.11649659E-01
  7.23556561E-01  7.29178611E-01  7.43460842E-01  7.92663673E-01  7.93734364E-01
  8.11037667E-01  8.13194845E-01  8.31162266E-01  8.68170692E-01  9.09110456E-01
  9.22357344E-01  9.28950360E-01  9.56406930E-01  9.75121042E-01  9.84935027E-01
  1.01694551E+00  1.05193631E+00  1.05498212E+00  1.08304155E+00  1.11729772E+00
  1.14194112E+00  1.19029675E+00  1.21839251E+00  1.23330914E+00  1.33946632E+00
  1.35238225E+00  1.38804173E+00  1.45544040E+00  1.48758768E+00  1.50760417E+00
  1.53768311E+00  1.56815118E+00  1.57948484E+00  1.61254385E+00  1.66463669E+00
  1.67140555E+00  1.70198493E+00  1.79225307E+00  1.82988000E+00  1.83515292E+00
  1.88077810E+00  1.90797697E+00  1.95670228E+00  1.99352711E+00  2.00297378E+00
  2.08072576E+00  2.12292082E+00  2.13057062E+00  2.15146427E+00  2.22628644E+00
  2.26561264E+00  2.26770372E+00  2.28947721E+00  2.31461905E+00  2.34716569E+00
  2.38633258E+00  2.42682844E+00  2.42839417E+00  2.45127549E+00  2.45907454E+00
  2.47858072E+00  2.50070275E+00  2.58869180E+00  2.59887629E+00  2.62232324E+00
  2.62435869E+00  2.63419433E+00  2.67144281E+00  2.75327613E+00  2.81620473E+00
  2.84959981E+00  2.89260078E+00  2.89345521E+00  2.93924151E+00  2.95273448E+00
  3.02706502E+00  3.06421423E+00  3.12668145E+00  3.20511120E+00  3.22396921E+00
  3.31923881E+00  3.33772450E+00  3.52609277E+00  3.63835131E+00  3.83846323E+00
  3.84413416E+00  4.14958151E+00  4.16778100E+00  4.18481425E+00  4.25806917E+00
  4.34857317E+00  4.39354645E+00  4.46339252E+00  4.52047473E+00  4.65658696E+00
  4.71211810E+00  4.80196875E+00  4.82909398E+00  4.83123174E+00  4.89647408E+00
  5.02472218E+00  5.07638668E+00  5.10701800E+00  5.14610284E+00  5.17374761E+00
  5.24437160E+00  5.27435059E+00  5.30444904E+00  5.33087861E+00  5.35198459E+00
  5.60282273E+00  5.67348865E+00  5.78402506E+00  5.82923179E+00  5.95667483E+00
  6.16958734E+00  6.31090938E+00  6.33612640E+00  6.39488328E+00  6.49623398E+00
  6.50892504E+00  6.61521460E+00  6.66815408E+00  6.70532979E+00  6.75800825E+00
  6.76508303E+00  6.83639784E+00  6.89316572E+00  7.01724629E+00  7.05701006E+00
  7.05898124E+00  7.09194993E+00  7.12312152E+00  7.15172257E+00  7.18248747E+00
  7.22623027E+00  7.24264657E+00  7.30779208E+00  7.32550272E+00  7.34747354E+00
  7.39878888E+00  7.43108276E+00  7.48296255E+00  7.60948555E+00  7.61238051E+00
  7.63135878E+00  7.66958195E+00  7.79883474E+00  7.88023540E+00  8.09427113E+00
  8.31550349E+00  8.40919110E+00  8.54336635E+00  1.34009299E+01  1.43790417E+01
  1.51691340E+01  1.61581475E+01
Alpha MO coefficients                      R   N=       42849
  9.22594510E-05 -6.23195365E-04 -7.27778601E-04 -3.86102451E-06 -2.15594046E-05
 -2.74759533E-05  0.00000000E+00 -4.33583541E-05  5.55444442E-05  0.00000000E+00
  8.72653475E-05  3.69248338E-05  0.00000000E+00  3.17699383E-05  0.00000000E+00
  0.00000000E+00 -5.04368960E-05  2.06357168E-05 -3.85477921E-06  0.00000000E+00
  0.00000000E+00 -1.41133859E-04  1.18173115E-04  4.54197892E-03 -2.80943068E-04
  1.22115798E-05  1.53460210E-03  1.82521455E-03  1.06798454E-04  7.72099518E-06
  0.00000000E+00 -6.18883474E-04 -3.81312080E-05  0.00000000E+00 -1.10246609E-03
  7.71684369E-04  0.00000000E+00 -4.03923153E-04  6.13136385E-05  0.00000000E+00
  2.89689197E-05  0.00000000E+00  0.00000000E+00 -5.44721345E-05  5.81203533E-06
 -3.78897900E-04  0.00000000E+00  0.00000000E+00  7.43667785E-04 -3.13607360E-05
 -4.46377338E-04  0.00000000E+00  0.00000000E+00  2.48240035E-04 -7.89655695E-06
  0.00000000E+00  8.03108512E-05  1.28682939E-05  0.00000000E+00  0.00000000E+00
 -1.09638098E-04 -3.55062917E-06  0.00000000E+00  2.56128859E-04 -2.70966178E-05
  0.00000000E+00  0.00000000E+00 -3.54875186E-04  4.90964904E-05  9.76911112E-01
 -9.21663215E-03  4.33186144E-02  2.02576929E-03 -9.03270516E-04  1.50109284E-03
 -1.34209319E-03  0.00000000E+00 -1.44378149E-03  1.37013838E-03  0.00000000E+00
  8.28202919E-05 -1.14332456E-03  0.00000000E+00 -1.35721564E-04 -1.44693936E-05
  0.00000000E+00  4.68008044E-05  0.00000000E+00  0.00000000E+00 -3.39294564E-05
  2.21551931E-05  7.48858857E-04  0.00000000E+00  0.00000000E+00 -2.37054416E-04
 -3.90604267E-04 -3.66521918E-04  0.00000000E+00  0.00000000E+00 -3.01146221E-04
 -3.58005356E-04  0.00000000E+00  4.72140413E-05 -4.84995327E-05  0.00000000E+00
  0.00000000E+00 -3.94508117E-05 -1.47733898E-05  0.00000000E+00  2.52686793E-05
  2.23867535E-05  0.00000000E+00  0.00000000E+00 -3.03242267E-04 -1.41566330E-04
  3.88169809E-05  4.49775127E-05 -2.62566454E-04 -7.23750511E-04 -1.67310421E-04
 -2.61872581E-05 -9.64290651E-05  0.00000000E+00  2.71744008E-04  7.00598232E-04
  0.00000000E+00 -8.08592506E-04 -4.57588085E-04  0.00000000E+00 -1.24207932E-04
 -3.17226512E-05  0.00000000E+00 -1.82732255E-05  0.00000000E+00  0.00000000E+00
 -3.00674671E-05  1.64118586E-05 -3.26534880E-04  0.00000000E+00  0.00000000E+00
 -8.23385837E-04  1.23920614E-04 -3.60748730E-05  0.00000000E+00  0.00000000E+00
  9.01931273E-05 -1.22764453E-04  0.00000000E+00 -2.02985812E-05 -1.19550167E-04
  0.00000000E+00  0.00000000E+00 -6.21404186E-05 -1.37175340E-04  0.00000000E+00
  4.43378983E-06 -1.53501179E-04  0.00000000E+00  0.00000000E+00  4.31410316E-05
 -4.11964484E-04 -2.64945408E-03  1.30008958E-04 -1.23320155E-04 -2.23141467E-04
  1.55661457E-04 -7.64644277E-06 -2.53370367E-05  0.00000000E+00  7.34403110E-05
  1.51465933E-04  0.00000000E+00  2.46794528E-04  1.88037902E-04  0.00000000E+00
  1.31432700E-04  2.55388616E-05  0.00000000E+00 -3.89451512E-06  0.00000000E+00
  0.00000000E+00 -1.82310528E-05  1.90823487E-06  5.90516006E-06  0.00000000E+00
  0.00000000E+00  8.98926730E-05  7.77156826E-05 -9.59648658E-05  0.00000000E+00
  0.00000000E+00  1.77994204E-04  1.57597103E-04  0.00000000E+00  1.65924388E-05
 -2.43560780E-06  0.00000000E+00  0.00000000E+00 -2.49368056E-06 -1.23916177E-05
  0.00000000E+00 -3.09851954E-05  4.35069152E-05  0.00000000E+00  0.00000000E+00
  8.97347565E-05  8.86595199E-05  3.92784250E-05 -9.77264221E-04 -4.76531566E-04
 -1.07321753E-05 -2.00190801E-05  1.49150368E-05  0.00000000E+00 -4.33655441E-06
  2.64620904E-04  0.00000000E+00 -4.57855892E-05  1.30487590E-04  0.00000000E+00
  2.53861538E-05  0.00000000E+00  0.00000000E+00  1.10820004E-05  1.09430204E-05
 -3.04957864E-05  0.00000000E+00  0.00000000E+00  1.23146571E-05  3.57731703E-05
  1.13195918E-04  8.36920457E-05 -2.73478968E-05  7.25775654E-04  6.58261498E-04
  1.03202803E-05  2.52610504E-06  0.00000000E+00 -7.45041798E-05  1.24299383E-05
  0.00000000E+00  3.40580110E-04  9.17306217E-04  0.00000000E+00  1.46768239E-06
  8.54751971E-05  0.00000000E+00 -2.32119813E-06  0.00000000E+00  0.00000000E+00
 -1.56752762E-07 -4.83064923E-06 -3.44824291E-05  0.00000000E+00  0.00000000E+00
 -1.68288621E-05  7.60087345E-05 -2.35237558E-05  0.00000000E+00  0.00000000E+00
 -2.72819818E-04 -1.73466375E-04  0.00000000E+00  8.83400839E-06  6.20072620E-06
  0.00000000E+00  0.00000000E+00  2.35839797E-06 -1.82538725E-05  0.00000000E+00
 -3.85019497E-05 -3.92645510E-05  0.00000000E+00  0.00000000E+00 -7.48670177E-05
  2.42244519E-05  2.68920397E-03  3.99372257E-05  9.94494341E-05 -9.10336257E-05
 -4.98774099E-04  5.31632458E-06  1.25478959E-05  0.00000000E+00 -5.51558758E-05
 -4.18856624E-05  0.00000000E+00  2.71538777E-04 -1.88911116E-04  0.00000000E+00
 -1.98299556E-04 -6.93021194E-05  0.00000000E+00 -9.02899920E-06  0.00000000E+00
  0.00000000E+00  2.21935681E-05  2.16847289E-05  1.05060861E-05  0.00000000E+00
  0.00000000E+00 -1.13164186E-04 -6.13723438E-05  2.89699780E-06  0.00000000E+00
  0.00000000E+00 -2.21929175E-04 -2.40187989E-04  0.00000000E+00  1.26456011E-06
 -3.43919085E-06  0.00000000E+00  0.00000000E+00 -1.08799024E-06 -1.12746673E-05
  0.00000000E+00 -4.42300761E-05  7.25771826E-06  0.00000000E+00  0.00000000E+00
 -7.83122532E-05  1.79278123E-04  2.57945589E-04  1.45792656E-03 -8.08138005E-05
 -1.47679776E-03  4.16929239E-04 -1.45511748E-04  8.06753243E-07  0.00000000E+00
 -2.08499093E-03 -3.58766532E-04  0.00000000E+00  9.96364272E-04  7.39663937E-04
  0.00000000E+00 -1.64142423E-04  6.75118655E-05  0.00000000E+00 -1.22416564E-04
  0.00000000E+00  0.00000000E+00  2.47515571E-04  8.52049632E-05 -4.47778406E-04
  0.00000000E+00  0.00000000E+00  8.84969741E-04 -9.38109688E-05  4.70915987E-06
  0.00000000E+00  0.00000000E+00 -3.38823121E-04 -1.17436569E-04  0.00000000E+00
 -2.30499182E-06  1.44686725E-05  0.00000000E+00  0.00000000E+00  1.94832427E-05
  1.09594041E-05  0.00000000E+00  1.67560007E-04 -7.50197949E-05  0.00000000E+00
  0.00000000E+00 -2.34080448E-04  4.64506993E-05  9.76646924E-01 -9.85030993E-03
  4.35710748E-02  4.46772975E-03 -4.54510327E-04  2.15822935E-03  4.24505702E-04
  0.00000000E+00 -2.39490242E-03 -5.44187578E-04  0.00000000E+00  1.13333438E-03
 -3.80605014E-06  0.00000000E+00  2.57023966E-06 -4.62912936E-05  0.00000000E+00
 -2.33296073E-04  0.00000000E+00  0.00000000E+00  1.02933803E-04  2.86977103E-05
  3.88977859E-04  0.00000000E+00  0.00000000E+00 -8.50123564E-04 -3.75458194E-04
 -1.59103360E-04  0.00000000E+00  0.00000000E+00  2.50549319E-04  1.91676281E-05
  0.00000000E+00  5.26470375E-05  1.72107708E-05  0.00000000E+00  0.00000000E+00
 -2.20249093E-05 -1.14119529E-05  0.00000000E+00  1.37711785E-04  3.55462119E-06
  0.00000000E+00  0.00000000E+00 -2.00039890E-04 -1.26213971E-04  4.75054048E-04
  2.05401637E-03  1.08297100E-04  1.48093375E-05 -4.08490338E-05 -2.46939261E-04
  0.00000000E+00  1.13725972E-04 -1.27225971E-03  0.00000000E+00  3.17535785E-04
 -3.34953247E-04  0.00000000E+00 -2.52572984E-06  0.00000000E+00  0.00000000E+00
  7.61599827E-05  1.54936980E-05 -1.59716837E-04  0.00000000E+00  0.00000000E+00
 -5.37616444E-04 -2.66149033E-05  9.76829535E-01 -9.16316868E-03  4.34508476E-02
  1.70713623E-04 -1.15766705E-03 -1.56063254E-03  1.44057507E-03  0.00000000E+00
  1.57333491E-03 -1.28295543E-03  0.00000000E+00 -5.65600040E-04 -8.59682640E-04
  0.00000000E+00  5.70919912E-05 -3.75357631E-05  0.00000000E+00  2.92395599E-05
  0.00000000E+00  0.00000000E+00 -1.17740836E-04 -2.77624131E-06  7.56799951E-04
  0.00000000E+00  0.00000000E+00 -2.01192124E-04 -2.35080657E-04 -2.66860123E-04
  0.00000000E+00  0.00000000E+00  1.65977850E-04  1.27342440E-04  0.00000000E+00
 -6.41027661E-05  1.20889340E-06  0.00000000E+00  0.00000000E+00  1.87064781E-05
  1.00675326E-05  0.00000000E+00 -1.22819876E-06  1.22705489E-04  0.00000000E+00
  0.00000000E+00  2.56666487E-04  9.19389235E-05 -4.63375196E-03 -2.10195824E-04