title                                                                   
SP        RMP2-FC                                                     Aug-CC-pVTZ         
Number of atoms                            I                5
Info1-9                                    I   N=           9
          33          24           0           0           0         110
           1           2           1
Full Title                                 C   N=           1
title       
Route                                      C   N=           4
#p SP mp2/aug-cc-pvtz density=current           
Charge                                     I                0
Multiplicity                               I                1
Number of electrons                        I               32
Number of alpha electrons                  I               16
Number of beta electrons                   I               16
Number of basis functions                  I              207
Number of independent functions            I              207
Number of point charges in /Mol/           I                0
Number of translation vectors              I                0
Atomic numbers                             I   N=           5
           1           8           8           7           8
Nuclear charges                            R   N=           5
  1.00000000E+00  8.00000000E+00  8.00000000E+00  7.00000000E+00  8.00000000E+00
Current cartesian coordinates              R   N=          15
  2.92188742E+00  3.21710085E+00 -2.01104080E-31  2.74749939E+00  1.39432542E+00
 -5.56049603E-32  3.48505698E-17  1.29213876E+00 -2.08426426E-32 -4.94414717E-01
 -1.46466665E+00  6.28501656E-32 -2.68012244E+00 -1.80701846E+00  1.14927488E-31
Number of symbols in /Mol/                 I                0
Force Field                                I                0
Atom Types                                 C   N=           5
                                                            
Int Atom Types                             I   N=           5
           0           0           0           0           0
MM charges                                 R   N=           5
  0.00000000E+00  0.00000000E+00  0.00000000E+00  0.00000000E+00  0.00000000E+00
Integer atomic weights                     I   N=           5
           1          16          16          14          16
Real atomic weights                        R   N=           5
  1.00782504E+00  1.59949146E+01  1.59949146E+01  1.40030740E+01  1.59949146E+01
Atom fragment info                         I   N=           5
           0           0           0           0           0
Atom residue num                           I   N=           5
           0           0           0           0           0
Nuclear spins                              I   N=           5
           1           0           0           2           0
Nuclear ZEff                               R   N=           5
 -1.00000000E+00 -5.60000000E+00 -5.60000000E+00 -4.55000000E+00 -5.60000000E+00
Nuclear ZNuc                               R   N=           5
  1.00000000E+00  8.00000000E+00  8.00000000E+00  7.00000000E+00  8.00000000E+00
Nuclear QMom                               R   N=           5
  0.00000000E+00  0.00000000E+00  0.00000000E+00  2.04400000E+00  0.00000000E+00
Nuclear GFac                               R   N=           5
  2.79284600E+00  0.00000000E+00  0.00000000E+00  4.03761000E-01  0.00000000E+00
MicOpt                                     I   N=           5
          -1          -1          -1          -1          -1
Number of residues                         I                0
Number of secondary structures             I                0
SymInf integers                            I   N=          26
           1           2           1           1           1           1
           1          -1           0           0           0           0
           0           0           0           0           0           0
           0           0           0           0           0           0
           0           0
RotTr to input orientation                 R   N=          12
 -9.95454642E-01 -9.77254849E-17 -9.52368406E-02  9.52368406E-02 -7.38060122E-17
 -9.95454642E-01  9.02522361E-17 -1.00000000E+00  8.27776039E-17  2.60221988E+00
  0.00000000E+00  3.48074930E+00
Number of contracted shells                I               65
Number of primitive shells                 I              119
Pure/Cartesian d shells                    I                0
Pure/Cartesian f shells                    I                0
Highest angular momentum                   I                3
Largest degree of contraction              I                7
Shell types                                I   N=          65
           0           0           0           0           1           1
           1          -2          -2           0           0           0
           0           0           1           1           1           1
          -2          -2          -2          -3          -3           0
           0           0           0           0           1           1
           1           1          -2          -2          -2          -3
          -3           0           0           0           0           0
           1           1           1           1          -2          -2
          -2          -3          -3           0           0           0
           0           0           1           1           1           1
          -2          -2          -2          -3          -3
Number of primitives per shell             I   N=          65
           3           1           1           1           1           1
           1           1           1           7           6           1
           1           1           3           1           1           1
           1           1           1           1           1           7
           6           1           1           1           3           1
           1           1           1           1           1           1
           1           7           6           1           1           1
           3           1           1           1           1           1
           1           1           1           7           6           1
           1           1           3           1           1           1
           1           1           1           1           1
Shell to atom map                          I   N=          65
           1           1           1           1           1           1
           1           1           1           2           2           2
           2           2           2           2           2           2
           2           2           2           2           2           3
           3           3           3           3           3           3
           3           3           3           3           3           3
           3           4           4           4           4           4
           4           4           4           4           4           4
           4           4           4           5           5           5
           5           5           5           5           5           5
           5           5           5           5           5
Primitive exponents                        R   N=         119
  3.38700000E+01  5.09500000E+00  1.15900000E+00  3.25800000E-01  1.02700000E-01
  2.52600000E-02  1.40700000E+00  3.88000000E-01  1.02000000E-01  1.05700000E+00
  2.47000000E-01  1.53300000E+04  2.29900000E+03  5.22400000E+02  1.47300000E+02
  4.75500000E+01  1.67600000E+01  6.20700000E+00  5.22400000E+02  1.47300000E+02
  4.75500000E+01  1.67600000E+01  6.20700000E+00  6.88200000E-01  1.75200000E+00
  2.38400000E-01  7.37600000E-02  3.44600000E+01  7.74900000E+00  2.28000000E+00
  7.15600000E-01  2.14000000E-01  5.97400000E-02  2.31400000E+00  6.45000000E-01
  2.14000000E-01  1.42800000E+00  5.00000000E-01  1.53300000E+04  2.29900000E+03
  5.22400000E+02  1.47300000E+02  4.75500000E+01  1.67600000E+01  6.20700000E+00
  5.22400000E+02  1.47300000E+02  4.75500000E+01  1.67600000E+01  6.20700000E+00
  6.88200000E-01  1.75200000E+00  2.38400000E-01  7.37600000E-02  3.44600000E+01
  7.74900000E+00  2.28000000E+00  7.15600000E-01  2.14000000E-01  5.97400000E-02
  2.31400000E+00  6.45000000E-01  2.14000000E-01  1.42800000E+00  5.00000000E-01
  1.14200000E+04  1.71200000E+03  3.89300000E+02  1.10000000E+02  3.55700000E+01
  1.25400000E+01  4.64400000E+00  3.89300000E+02  1.10000000E+02  3.55700000E+01
  1.25400000E+01  4.64400000E+00  5.11800000E-01  1.29300000E+00  1.78700000E-01
  5.76000000E-02  2.66300000E+01  5.94800000E+00  1.74200000E+00  5.55000000E-01
  1.72500000E-01  4.91000000E-02  1.65400000E+00  4.69000000E-01  1.51000000E-01
  1.09300000E+00  3.64000000E-01  1.53300000E+04  2.29900000E+03  5.22400000E+02
  1.47300000E+02  4.75500000E+01  1.67600000E+01  6.20700000E+00  5.22400000E+02
  1.47300000E+02  4.75500000E+01  1.67600000E+01  6.20700000E+00  6.88200000E-01
  1.75200000E+00  2.38400000E-01  7.37600000E-02  3.44600000E+01  7.74900000E+00
  2.28000000E+00  7.15600000E-01  2.14000000E-01  5.97400000E-02  2.31400000E+00
  6.45000000E-01  2.14000000E-01  1.42800000E+00  5.00000000E-01
Contraction coefficients                   R   N=         119
  2.54948632E-02  1.90362766E-01  8.52162022E-01  1.00000000E+00  1.00000000E+00
  1.00000000E+00  1.00000000E+00  1.00000000E+00  1.00000000E+00  1.00000000E+00
  1.00000000E+00  5.19808943E-04  4.02025621E-03  2.07128267E-02  8.10105536E-02
  2.35962985E-01  4.42653446E-01  3.57064423E-01 -4.42115008E-05 -1.22591041E-03
 -1.05517725E-02 -6.74452633E-02 -1.71198607E-01  1.07329856E+00  1.00000000E+00
  1.00000000E+00  1.00000000E+00  4.11634896E-02  2.57762836E-01  8.02419274E-01
  1.00000000E+00  1.00000000E+00  1.00000000E+00  1.00000000E+00  1.00000000E+00
  1.00000000E+00  1.00000000E+00  1.00000000E+00  5.19808943E-04  4.02025621E-03
  2.07128267E-02  8.10105536E-02  2.35962985E-01  4.42653446E-01  3.57064423E-01
 -4.42115008E-05 -1.22591041E-03 -1.05517725E-02 -6.74452633E-02 -1.71198607E-01
  1.07329856E+00  1.00000000E+00  1.00000000E+00  1.00000000E+00  4.11634896E-02
  2.57762836E-01  8.02419274E-01  1.00000000E+00  1.00000000E+00  1.00000000E+00
  1.00000000E+00  1.00000000E+00  1.00000000E+00  1.00000000E+00  1.00000000E+00
  5.34563860E-04  4.13435660E-03  2.12335358E-02  8.25006224E-02  2.38138871E-01
  4.42551547E-01  3.53757422E-01 -4.89867350E-05 -1.19527323E-03 -1.03490714E-02
 -6.48680190E-02 -1.71552477E-01  1.07289568E+00  1.00000000E+00  1.00000000E+00
  1.00000000E+00  3.98072123E-02  2.49002660E-01  8.10479727E-01  1.00000000E+00
  1.00000000E+00  1.00000000E+00  1.00000000E+00  1.00000000E+00  1.00000000E+00
  1.00000000E+00  1.00000000E+00  5.19808943E-04  4.02025621E-03  2.07128267E-02
  8.10105536E-02  2.35962985E-01  4.42653446E-01  3.57064423E-01 -4.42115008E-05
 -1.22591041E-03 -1.05517725E-02 -6.74452633E-02 -1.71198607E-01  1.07329856E+00
  1.00000000E+00  1.00000000E+00  1.00000000E+00  4.11634896E-02  2.57762836E-01
  8.02419274E-01  1.00000000E+00  1.00000000E+00  1.00000000E+00  1.00000000E+00
  1.00000000E+00  1.00000000E+00  1.00000000E+00  1.00000000E+00
Coordinates of each shell                  R   N=         195
  2.92188742E+00  3.21710085E+00 -7.54743384E-32  2.92188742E+00  3.21710085E+00
 -7.54743384E-32  2.92188742E+00  3.21710085E+00 -7.54743384E-32  2.92188742E+00
  3.21710085E+00 -7.54743384E-32  2.92188742E+00  3.21710085E+00 -7.54743384E-32
  2.92188742E+00  3.21710085E+00 -7.54743384E-32  2.92188742E+00  3.21710085E+00
 -7.54743384E-32  2.92188742E+00  3.21710085E+00 -7.54743384E-32  2.92188742E+00
  3.21710085E+00 -7.54743384E-32  2.74749939E+00  1.39432542E+00 -6.09650754E-32
  2.74749939E+00  1.39432542E+00 -6.09650754E-32  2.74749939E+00  1.39432542E+00
 -6.09650754E-32  2.74749939E+00  1.39432542E+00 -6.09650754E-32  2.74749939E+00
  1.39432542E+00 -6.09650754E-32  2.74749939E+00  1.39432542E+00 -6.09650754E-32
  2.74749939E+00  1.39432542E+00 -6.09650754E-32  2.74749939E+00  1.39432542E+00
 -6.09650754E-32  2.74749939E+00  1.39432542E+00 -6.09650754E-32  2.74749939E+00
  1.39432542E+00 -6.09650754E-32  2.74749939E+00  1.39432542E+00 -6.09650754E-32
  2.74749939E+00  1.39432542E+00 -6.09650754E-32  2.74749939E+00  1.39432542E+00
 -6.09650754E-32  2.74749939E+00  1.39432542E+00 -6.09650754E-32  9.56862895E-19
  1.29213876E+00 -7.92722335E-33  9.56862895E-19  1.29213876E+00 -7.92722335E-33
  9.56862895E-19  1.29213876E+00 -7.92722335E-33  9.56862895E-19  1.29213876E+00
 -7.92722335E-33  9.56862895E-19  1.29213876E+00 -7.92722335E-33  9.56862895E-19
  1.29213876E+00 -7.92722335E-33  9.56862895E-19  1.29213876E+00 -7.92722335E-33
  9.56862895E-19  1.29213876E+00 -7.92722335E-33  9.56862895E-19  1.29213876E+00
 -7.92722335E-33  9.56862895E-19  1.29213876E+00 -7.92722335E-33  9.56862895E-19
  1.29213876E+00 -7.92722335E-33  9.56862895E-19  1.29213876E+00 -7.92722335E-33
  9.56862895E-19  1.29213876E+00 -7.92722335E-33  9.56862895E-19  1.29213876E+00
 -7.92722335E-33 -4.94414717E-01 -1.46466665E+00  1.84170663E-32 -4.94414717E-01
 -1.46466665E+00  1.84170663E-32 -4.94414717E-01 -1.46466665E+00  1.84170663E-32
 -4.94414717E-01 -1.46466665E+00  1.84170663E-32 -4.94414717E-01 -1.46466665E+00
  1.84170663E-32 -4.94414717E-01 -1.46466665E+00  1.84170663E-32 -4.94414717E-01
 -1.46466665E+00  1.84170663E-32 -4.94414717E-01 -1.46466665E+00  1.84170663E-32
 -4.94414717E-01 -1.46466665E+00  1.84170663E-32 -4.94414717E-01 -1.46466665E+00
  1.84170663E-32 -4.94414717E-01 -1.46466665E+00  1.84170663E-32 -4.94414717E-01
 -1.46466665E+00  1.84170663E-32 -4.94414717E-01 -1.46466665E+00  1.84170663E-32
 -4.94414717E-01 -1.46466665E+00  1.84170663E-32 -2.68012244E+00 -1.80701846E+00
  6.22116580E-32 -2.68012244E+00 -1.80701846E+00  6.22116580E-32 -2.68012244E+00
 -1.80701846E+00  6.22116580E-32 -2.68012244E+00 -1.80701846E+00  6.22116580E-32
 -2.68012244E+00 -1.80701846E+00  6.22116580E-32 -2.68012244E+00 -1.80701846E+00
  6.22116580E-32 -2.68012244E+00 -1.80701846E+00  6.22116580E-32 -2.68012244E+00
 -1.80701846E+00  6.22116580E-32 -2.68012244E+00 -1.80701846E+00  6.22116580E-32
 -2.68012244E+00 -1.80701846E+00  6.22116580E-32 -2.68012244E+00 -1.80701846E+00
  6.22116580E-32 -2.68012244E+00 -1.80701846E+00  6.22116580E-32 -2.68012244E+00
 -1.80701846E+00  6.22116580E-32 -2.68012244E+00 -1.80701846E+00  6.22116580E-32
Num ILSW                                   I              100
ILSW                                       I   N=         100
           0           0           0           0           2           0
           0           0           0           0           0          -1
           5           0           0           0           0           0
           0           0           0           0           0           0
           1           0           0           0           0           0
           0           0      100000           0          -1           0
           0           0           0           0           0           0
           0           0           0           1           0           0
           0 -2000000000           1           0           0           0
           0           0           4          52           0           0
           0           0           0           0           0           0
           0           0           0           5           0           1
           0           0           0           0           0           0
           0           0           0           0           0           0
           0           0           0           0           0           0
           0           0           0           0           0           0
           0           0           0           0
Num RLSW                                   I               52
RLSW                                       R   N=          52
  1.00000000E+00  1.00000000E+00  1.00000000E+00  1.00000000E+00  1.00000000E+00
  0.00000000E+00  0.00000000E+00  1.00000000E+00  0.00000000E+00  0.00000000E+00
  0.00000000E+00  0.00000000E+00  1.00000000E+00  0.00000000E+00  0.00000000E+00
  0.00000000E+00  0.00000000E+00  1.00000000E+00  0.00000000E+00  0.00000000E+00
  0.00000000E+00  0.00000000E+00  1.00000000E+00  0.00000000E+00  0.00000000E+00
  0.00000000E+00  0.00000000E+00  1.00000000E+00  0.00000000E+00  0.00000000E+00
  0.00000000E+00  0.00000000E+00  1.00000000E+00  0.00000000E+00  0.00000000E+00
  0.00000000E+00  0.00000000E+00  0.00000000E+00  1.00000000E+00  1.00000000E+00
  0.00000000E+00  1.00000000E+00  0.00000000E+00  0.00000000E+00  0.00000000E+00
  0.00000000E+00  0.00000000E+00  0.00000000E+00  0.00000000E+00  0.00000000E+00
  0.00000000E+00  0.00000000E+00
MxBond                                     I                2
NBond                                      I   N=           5
           1           2           2           2           1
IBond                                      I   N=          10
           2           0           1           3           2           4
           3           5           4           0
RBond                                      R   N=          10
  1.00000000E+00  0.00000000E+00  1.00000000E+00  1.00000000E+00  1.00000000E+00
  1.00000000E+00  1.00000000E+00  2.00000000E+00  2.00000000E+00  0.00000000E+00
Virial Ratio                               R      2.002476670162515E+00
SCF Energy                                 R     -2.794993042010478E+02
MP2 Energy                                 R     -2.804466233849755E+02
Total Energy                               R     -2.804466233849755E+02
Post-SCF wavefunction norm                 R      1.121215552060440E+00
RMS Density                                R      4.136984842804708E-09
Job Status                                 I                1
Nuclear derivative order                   I                0
External E-field                           R   N=          35
  0.00000000E+00  0.00000000E+00  0.00000000E+00  0.00000000E+00  0.00000000E+00
  0.00000000E+00  0.00000000E+00  0.00000000E+00  0.00000000E+00  0.00000000E+00
  0.00000000E+00  0.00000000E+00  0.00000000E+00  0.00000000E+00  0.00000000E+00
  0.00000000E+00  0.00000000E+00  0.00000000E+00  0.00000000E+00  0.00000000E+00
  0.00000000E+00  0.00000000E+00  0.00000000E+00  0.00000000E+00  0.00000000E+00
  0.00000000E+00  0.00000000E+00  0.00000000E+00  0.00000000E+00  0.00000000E+00
  0.00000000E+00  0.00000000E+00  0.00000000E+00  0.00000000E+00  0.00000000E+00
IOpCl                                      I                0
IROHF                                      I                0
Alpha Orbital Energies                     R   N=         207
 -2.06898032E+01 -2.06869402E+01 -2.06571234E+01 -1.58166022E+01 -1.62323329E+00
 -1.49232621E+00 -1.24745112E+00 -9.49945683E-01 -7.70957427E-01 -7.56587132E-01
 -7.08054855E-01 -6.80548198E-01 -6.21574018E-01 -5.88151579E-01 -4.82730874E-01
 -4.71354219E-01  3.02681836E-02  6.86726906E-02  8.54943460E-02  1.01441868E-01
  1.33820512E-01  1.34107991E-01  1.44566426E-01  1.54991698E-01  1.78768304E-01
  1.94045964E-01  1.99691000E-01  2.02905925E-01  2.21416638E-01  2.36424391E-01
  2.37116215E-01  2.65410087E-01  2.84531897E-01  3.04394456E-01  3.09773218E-01
  3.41702147E-01  3.48940889E-01  3.86901081E-01  4.22842375E-01  4.32453385E-01
  5.26176459E-01  5.28218593E-01  5.55989351E-01  5.80363118E-01  6.24237568E-01
  6.36947874E-01  6.73605871E-01  6.84498011E-01  7.07157001E-01  7.11622075E-01
  7.24389106E-01  7.31040771E-01  7.45544762E-01  7.90099690E-01  7.92891649E-01
  8.09399528E-01  8.14384520E-01  8.29543743E-01  8.66451895E-01  9.08199192E-01
  9.22827000E-01  9.24607233E-01  9.58802136E-01  9.74259557E-01  9.85586068E-01
  1.01845194E+00  1.05104566E+00  1.05359192E+00  1.08028423E+00  1.11586377E+00
  1.13893155E+00  1.18829275E+00  1.22004973E+00  1.23210153E+00  1.33625111E+00
  1.34605823E+00  1.38866259E+00  1.44983962E+00  1.48762508E+00  1.50980693E+00
  1.53647569E+00  1.56408729E+00  1.57544966E+00  1.61207797E+00  1.66221915E+00
  1.66963131E+00  1.70101001E+00  1.79295196E+00  1.83002748E+00  1.83074913E+00
  1.87895037E+00  1.90724689E+00  1.95583589E+00  1.98751897E+00  2.00283182E+00
  2.07052969E+00  2.11821743E+00  2.12879559E+00  2.15279654E+00  2.21990480E+00
  2.26235907E+00  2.26652496E+00  2.28724790E+00  2.31370572E+00  2.33832996E+00
  2.38608586E+00  2.42087680E+00  2.42335135E+00  2.45189010E+00  2.46040356E+00
  2.47268487E+00  2.49781881E+00  2.59163412E+00  2.59486928E+00  2.61530612E+00
  2.62267235E+00  2.63646513E+00  2.66530040E+00  2.75364781E+00  2.81344227E+00
  2.84523592E+00  2.87570810E+00  2.89547439E+00  2.90466636E+00  2.95679831E+00
  3.01677156E+00  3.05848839E+00  3.11529643E+00  3.20597645E+00  3.22417852E+00
  3.31265118E+00  3.33540975E+00  3.51316759E+00  3.63485761E+00  3.82730309E+00
  3.83940093E+00  4.14839157E+00  4.16911352E+00  4.18101564E+00  4.24769997E+00
  4.35187130E+00  4.39284042E+00  4.46495178E+00  4.51617551E+00  4.65351032E+00
  4.70678590E+00  4.79883454E+00  4.81017129E+00  4.83192162E+00  4.89319490E+00
  5.01538447E+00  5.07067270E+00  5.09326959E+00  5.14558159E+00  5.17216005E+00
  5.23688397E+00  5.26367068E+00  5.30353599E+00  5.32831785E+00  5.34551894E+00
  5.59890097E+00  5.66935457E+00  5.75507332E+00  5.83067644E+00  5.94632238E+00
  6.15848385E+00  6.30850966E+00  6.32895882E+00  6.39116454E+00  6.48799054E+00
  6.50050773E+00  6.61285428E+00  6.66894998E+00  6.69267289E+00  6.76117544E+00
  6.76350292E+00  6.82549688E+00  6.89115488E+00  7.00804501E+00  7.05322307E+00
  7.05916682E+00  7.09041344E+00  7.11738428E+00  7.14342780E+00  7.18070428E+00
  7.21339730E+00  7.24308973E+00  7.31166241E+00  7.32140315E+00  7.34029337E+00
  7.39225881E+00  7.41975806E+00  7.47839085E+00  7.60193707E+00  7.60412584E+00
  7.61388173E+00  7.65501672E+00  7.77996472E+00  7.88149142E+00  8.06636684E+00
  8.30386320E+00  8.40873914E+00  8.53345925E+00  1.33450694E+01  1.42718071E+01
  1.51433356E+01  1.61092086E+01
Alpha MO coefficients                      R   N=       42849
  3.71941559E-05 -9.72819650E-04 -4.81078662E-04 -1.27049472E-05 -2.25722488E-05
  1.68597975E-05  0.00000000E+00  4.33664335E-06  2.75147412E-04  0.00000000E+00
 -4.04676970E-05  1.33680808E-04  0.00000000E+00  2.55067494E-05  0.00000000E+00
  0.00000000E+00  1.37118288E-05  1.01403240E-05 -2.46925296E-05  0.00000000E+00
  0.00000000E+00  9.93566328E-06  3.01319870E-05  4.75313210E-05  8.68852407E-05
 -2.87627236E-05  7.06175924E-04  6.20926455E-04  8.75409452E-06  2.24401083E-06
  0.00000000E+00 -6.29238623E-05  1.95874118E-05  0.00000000E+00  3.47256280E-04
  8.61298235E-04  0.00000000E+00  9.78759147E-06  7.74097264E-05  0.00000000E+00
 -2.50192394E-06  0.00000000E+00  0.00000000E+00  5.57440739E-07 -6.87239779E-06
 -3.19562839E-05  0.00000000E+00  0.00000000E+00 -3.09060043E-05  8.64805229E-05
 -1.86963027E-05  0.00000000E+00  0.00000000E+00 -2.67452877E-04 -1.47189159E-04
  0.00000000E+00  8.25768193E-06  5.53517253E-06  0.00000000E+00  0.00000000E+00
  4.15190935E-06 -1.84153782E-05  0.00000000E+00 -4.26147122E-05 -3.60780759E-05
  0.00000000E+00  0.00000000E+00 -7.08380235E-05  1.35624688E-05 -5.78880203E-03
  1.18725623E-04 -2.82137089E-04 -1.10620419E-04 -4.81239507E-04 -3.89458134E-06
  2.72233471E-05  0.00000000E+00 -5.32624176E-05 -6.30272413E-05  0.00000000E+00
  2.53534313E-04 -9.03477909E-05  0.00000000E+00 -1.76221645E-04 -4.90494495E-05
  0.00000000E+00 -8.62490674E-06  0.00000000E+00  0.00000000E+00  2.06515542E-05
  1.77542158E-05 -2.68582391E-06  0.00000000E+00  0.00000000E+00 -9.96878059E-05
 -3.24728393E-05  3.21011407E-06  0.00000000E+00  0.00000000E+00 -1.83628446E-04
 -1.87408370E-04  0.00000000E+00  4.90750481E-06  1.33006142E-06  0.00000000E+00
  0.00000000E+00  4.99803889E-06 -1.70492387E-05  0.00000000E+00 -4.89675010E-05
 -1.63643816E-06  0.00000000E+00  0.00000000E+00 -7.36323254E-05  1.85587110E-04
  2.59934777E-04  1.46795945E-03 -8.02917929E-05 -1.45236164E-03  4.31919077E-04
 -1.45937647E-04 -4.95029314E-07  0.00000000E+00 -2.06760305E-03 -3.98944535E-04
  0.00000000E+00  1.02463746E-03  7.81268429E-04  0.00000000E+00 -1.72360803E-04
  5.85728706E-05  0.00000000E+00 -1.23374529E-04  0.00000000E+00  0.00000000E+00
  2.40874724E-04  9.40675285E-05 -4.43489878E-04  0.00000000E+00  0.00000000E+00
  9.00755424E-04 -3.99118697E-05  6.05187833E-06  0.00000000E+00  0.00000000E+00
 -3.34729072E-04 -1.12804933E-04  0.00000000E+00 -2.35542733E-06  1.56804219E-05
  0.00000000E+00  0.00000000E+00  1.77195675E-05  1.43339244E-05  0.00000000E+00
  1.68497946E-04 -6.66047145E-05  0.00000000E+00  0.00000000E+00 -2.49834952E-04
  3.27922907E-05  9.76640770E-01 -9.85349450E-03  4.35546120E-02  4.47374443E-03
 -4.55286907E-04  2.14290284E-03  4.82538447E-04  0.00000000E+00 -2.38167005E-03
 -6.03779321E-04  0.00000000E+00  1.14092005E-03  5.89819321E-06  0.00000000E+00
  2.75975366E-06 -4.00190067E-05  0.00000000E+00 -2.31884204E-04  0.00000000E+00
  0.00000000E+00  1.04330823E-04  3.11760379E-05  3.86713478E-04  0.00000000E+00
  0.00000000E+00 -8.27982872E-04 -4.17421151E-04 -1.56308215E-04  0.00000000E+00
  0.00000000E+00  2.61310092E-04  2.27156907E-05  0.00000000E+00  5.17811870E-05
  1.76681202E-05  0.00000000E+00  0.00000000E+00 -2.24531674E-05 -1.34591216E-05
  0.00000000E+00  1.35810415E-04  8.99572076E-06  0.00000000E+00  0.00000000E+00
 -1.87793432E-04 -1.39208930E-04  9.37050548E-05 -6.82055922E-04 -7.69147905E-04
 -5.08870826E-06 -2.30171407E-05 -2.67652517E-05  0.00000000E+00 -4.97680700E-05
  7.36354182E-05  0.00000000E+00  8.81489753E-05  4.94541446E-05  0.00000000E+00
  3.28029789E-05  0.00000000E+00  0.00000000E+00 -4.85514124E-05  2.22216763E-05
 -4.56345274E-06  0.00000000E+00  0.00000000E+00 -1.40429691E-04  1.17423265E-04
  4.75172402E-03 -2.78601039E-04  2.06256181E-05  1.54555492E-03  1.83434664E-03
  1.06329570E-04  8.15288981E-06  0.00000000E+00 -6.15614192E-04 -3.59575419E-05
  0.00000000E+00 -1.05614259E-03  8.17879262E-04  0.00000000E+00 -3.98571804E-04
  6.64555969E-05  0.00000000E+00  2.87285115E-05  0.00000000E+00  0.00000000E+00
 -5.46931287E-05  4.55836168E-06 -3.79095926E-04  0.00000000E+00  0.00000000E+00
  7.40506167E-04 -2.03795984E-05 -4.48436756E-04  0.00000000E+00  0.00000000E+00
  2.24402840E-04 -5.01792321E-06  0.00000000E+00  8.04399091E-05  1.30922848E-05
  0.00000000E+00  0.00000000E+00 -1.09799221E-04 -4.44139810E-06  0.00000000E+00
  2.54423013E-04 -2.71943477E-05  0.00000000E+00  0.00000000E+00 -3.60028786E-04
  4.28733828E-05  9.76910369E-01 -9.20304370E-03  4.32877147E-02  2.22421260E-03
 -8.38498168E-04  1.50972993E-03 -1.30096505E-03  0.00000000E+00 -1.46434822E-03
  1.30368501E-03  0.00000000E+00  1.13769065E-04 -1.22326023E-03  0.00000000E+00
 -1.38196425E-04 -2.67623961E-05  0.00000000E+00  5.23267707E-05  0.00000000E+00
  0.00000000E+00 -2.90182739E-05  1.94376880E-05  7.26441696E-04  0.00000000E+00
  0.00000000E+00 -2.67754679E-04 -3.74295220E-04 -3.76759625E-04  0.00000000E+00
  0.00000000E+00 -3.13491982E-04 -3.67048370E-04  0.00000000E+00  4.95981322E-05
 -4.64295835E-05  0.00000000E+00  0.00000000E+00 -3.76715568E-05 -1.49198378E-05
  0.00000000E+00  1.96365898E-05  3.17140688E-05  0.00000000E+00  0.00000000E+00
 -2.99247028E-04 -1.23738865E-04  3.29773924E-05  8.18807310E-06 -2.43432758E-04
 -7.83311844E-04 -1.64578788E-04 -2.80037712E-05 -9.21005404E-05  0.00000000E+00
  2.35690989E-04  5.96581337E-04  0.00000000E+00 -8.49290910E-04 -5.93954830E-04
  0.00000000E+00 -1.28339706E-04 -3.86665510E-05  0.00000000E+00 -1.02620184E-05
  0.00000000E+00  0.00000000E+00 -1.08615299E-05  1.10956610E-05 -3.07283403E-04
  0.00000000E+00  0.00000000E+00 -7.77769226E-04  1.19056531E-04 -2.60023814E-05
  0.00000000E+00  0.00000000E+00  1.07635059E-04 -1.07133668E-04  0.00000000E+00
 -1.97818282E-05 -1.15628865E-04  0.00000000E+00  0.00000000E+00 -5.68096028E-05
 -1.35301901E-04  0.00000000E+00  1.11836339E-05 -1.43692356E-04  0.00000000E+00
  0.00000000E+00  6.27399367E-05 -4.24748726E-04  5.82680529E-03  4.34334590E-05
  2.49699765E-04 -2.38104224E-04  9.97745475E-05  1.11238546E-05 -2.62001391E-05
  0.00000000E+00  4.54056774E-05  1.70104224E-04  0.00000000E+00  2.14972360E-04
  2.35870503E-04  0.00000000E+00  1.16946824E-04  2.25800105E-05  0.00000000E+00
 -6.27449355E-06  0.00000000E+00  0.00000000E+00 -1.64022434E-05  7.41832143E-07
  7.21914632E-06  0.00000000E+00  0.00000000E+00  6.59397739E-05  9.60955351E-05
 -9.63343113E-05  0.00000000E+00  0.00000000E+00  1.60622329E-04  1.75003826E-04
  0.00000000E+00  1.54512108E-05 -5.06536461E-06  0.00000000E+00  0.00000000E+00
 -7.42111270E-06 -1.03246870E-05  0.00000000E+00 -2.81402818E-05  4.75227115E-05
  0.00000000E+00  0.00000000E+00  8.14772300E-05  9.29324931E-05  4.75237895E-04
  2.02451896E-03  8.72027884E-05  1.36042969E-05 -4.11200457E-05 -2.45863672E-04
  0.00000000E+00  1.17208812E-04 -1.26213762E-03  0.00000000E+00  3.09380127E-04
 -3.27083097E-04  0.00000000E+00 -1.69035383E-06  0.00000000E+00  0.00000000E+00
  7.66309856E-05  1.56474716E-05 -1.59521686E-04  0.00000000E+00  0.00000000E+00
 -5.36920614E-04 -2.67526182E-05  9.76829496E-01 -9.15900537E-03  4.34488628E-02
  1.89444635E-04 -1.10344343E-03 -1.56283878E-03  1.43475956E-03  0.00000000E+00
  1.57348444E-03 -1.27502497E-03  0.00000000E+00 -5.60610775E-04 -8.35845558E-04
  0.00000000E+00  5.45256316E-05 -2.38380636E-05  0.00000000E+00  2.93544914E-05
  0.00000000E+00  0.00000000E+00 -1.17310482E-04 -4.04371517E-06  7.54191919E-04
  0.00000000E+00  0.00000000E+00 -1.99547238E-04 -2.35544224E-04 -2.70808000E-04
  0.00000000E+00  0.00000000E+00  1.65678326E-04  1.27358553E-04  0.00000000E+00
 -6.41146311E-05  1.07288941E-06  0.00000000E+00  0.00000000E+00  1.89191239E-05
  1.01808597E-05  0.00000000E+00 -2.92294985E-07  1.21569421E-04  0.00000000E+00
  0.00000000E+00  2.52500655E-04  9.19797809E-05 -4.84113504E-03 -2.00773471E-04