title                                                                   
SP        RMP2-FC                                                     Aug-CC-pVTZ         
Number of atoms                            I                5
Info1-9                                    I   N=           9
          33          24           0           0           0         110
           1           2           1
Full Title                                 C   N=           1
title       
Route                                      C   N=           4
#p SP mp2/aug-cc-pvtz density=current           
Charge                                     I                0
Multiplicity                               I                1
Number of electrons                        I               32
Number of alpha electrons                  I               16
Number of beta electrons                   I               16
Number of basis functions                  I              207
Number of independent functions            I              207
Number of point charges in /Mol/           I                0
Number of translation vectors              I                0
Atomic numbers                             I   N=           5
           1           8           8           7           8
Nuclear charges                            R   N=           5
  1.00000000E+00  8.00000000E+00  8.00000000E+00  7.00000000E+00  8.00000000E+00
Current cartesian coordinates              R   N=          15
  2.93306037E+00  3.15937203E+00  2.49717604E-31  2.74804845E+00  1.33764426E+00
 -1.28445760E-31 -2.07317001E-16  1.25147738E+00 -6.18767488E-32 -4.94407730E-01
 -1.41570129E+00 -3.57007815E-31 -2.68207423E+00 -1.74530452E+00  8.56550999E-32
Number of symbols in /Mol/                 I                0
Force Field                                I                0
Atom Types                                 C   N=           5
                                                            
Int Atom Types                             I   N=           5
           0           0           0           0           0
MM charges                                 R   N=           5
  0.00000000E+00  0.00000000E+00  0.00000000E+00  0.00000000E+00  0.00000000E+00
Integer atomic weights                     I   N=           5
           1          16          16          14          16
Real atomic weights                        R   N=           5
  1.00782504E+00  1.59949146E+01  1.59949146E+01  1.40030740E+01  1.59949146E+01
Atom fragment info                         I   N=           5
           0           0           0           0           0
Atom residue num                           I   N=           5
           0           0           0           0           0
Nuclear spins                              I   N=           5
           1           0           0           2           0
Nuclear ZEff                               R   N=           5
 -1.00000000E+00 -5.60000000E+00 -5.60000000E+00 -4.55000000E+00 -5.60000000E+00
Nuclear ZNuc                               R   N=           5
  1.00000000E+00  8.00000000E+00  8.00000000E+00  7.00000000E+00  8.00000000E+00
Nuclear QMom                               R   N=           5
  0.00000000E+00  0.00000000E+00  0.00000000E+00  2.04400000E+00  0.00000000E+00
Nuclear GFac                               R   N=           5
  2.79284600E+00  0.00000000E+00  0.00000000E+00  4.03761000E-01  0.00000000E+00
MicOpt                                     I   N=           5
          -1          -1          -1          -1          -1
Number of residues                         I                0
Number of secondary structures             I                0
SymInf integers                            I   N=          26
           1           2           1           1           1           1
           1          -1           0           0           0           0
           0           0           0           0           0           0
           0           0           0           0           0           0
           0           0
RotTr to input orientation                 R   N=          12
 -9.94882490E-01  6.65769600E-16 -1.01038763E-01  1.01038763E-01 -9.33931896E-16
 -9.94882490E-01 -7.56725840E-16 -1.00000000E+00  8.61883954E-16  2.59883136E+00
  0.00000000E+00  3.43955670E+00
Number of contracted shells                I               65
Number of primitive shells                 I              119
Pure/Cartesian d shells                    I                0
Pure/Cartesian f shells                    I                0
Highest angular momentum                   I                3
Largest degree of contraction              I                7
Shell types                                I   N=          65
           0           0           0           0           1           1
           1          -2          -2           0           0           0
           0           0           1           1           1           1
          -2          -2          -2          -3          -3           0
           0           0           0           0           1           1
           1           1          -2          -2          -2          -3
          -3           0           0           0           0           0
           1           1           1           1          -2          -2
          -2          -3          -3           0           0           0
           0           0           1           1           1           1
          -2          -2          -2          -3          -3
Number of primitives per shell             I   N=          65
           3           1           1           1           1           1
           1           1           1           7           6           1
           1           1           3           1           1           1
           1           1           1           1           1           7
           6           1           1           1           3           1
           1           1           1           1           1           1
           1           7           6           1           1           1
           3           1           1           1           1           1
           1           1           1           7           6           1
           1           1           3           1           1           1
           1           1           1           1           1
Shell to atom map                          I   N=          65
           1           1           1           1           1           1
           1           1           1           2           2           2
           2           2           2           2           2           2
           2           2           2           2           2           3
           3           3           3           3           3           3
           3           3           3           3           3           3
           3           4           4           4           4           4
           4           4           4           4           4           4
           4           4           4           5           5           5
           5           5           5           5           5           5
           5           5           5           5           5
Primitive exponents                        R   N=         119
  3.38700000E+01  5.09500000E+00  1.15900000E+00  3.25800000E-01  1.02700000E-01
  2.52600000E-02  1.40700000E+00  3.88000000E-01  1.02000000E-01  1.05700000E+00
  2.47000000E-01  1.53300000E+04  2.29900000E+03  5.22400000E+02  1.47300000E+02
  4.75500000E+01  1.67600000E+01  6.20700000E+00  5.22400000E+02  1.47300000E+02
  4.75500000E+01  1.67600000E+01  6.20700000E+00  6.88200000E-01  1.75200000E+00
  2.38400000E-01  7.37600000E-02  3.44600000E+01  7.74900000E+00  2.28000000E+00
  7.15600000E-01  2.14000000E-01  5.97400000E-02  2.31400000E+00  6.45000000E-01
  2.14000000E-01  1.42800000E+00  5.00000000E-01  1.53300000E+04  2.29900000E+03
  5.22400000E+02  1.47300000E+02  4.75500000E+01  1.67600000E+01  6.20700000E+00
  5.22400000E+02  1.47300000E+02  4.75500000E+01  1.67600000E+01  6.20700000E+00
  6.88200000E-01  1.75200000E+00  2.38400000E-01  7.37600000E-02  3.44600000E+01
  7.74900000E+00  2.28000000E+00  7.15600000E-01  2.14000000E-01  5.97400000E-02
  2.31400000E+00  6.45000000E-01  2.14000000E-01  1.42800000E+00  5.00000000E-01
  1.14200000E+04  1.71200000E+03  3.89300000E+02  1.10000000E+02  3.55700000E+01
  1.25400000E+01  4.64400000E+00  3.89300000E+02  1.10000000E+02  3.55700000E+01
  1.25400000E+01  4.64400000E+00  5.11800000E-01  1.29300000E+00  1.78700000E-01
  5.76000000E-02  2.66300000E+01  5.94800000E+00  1.74200000E+00  5.55000000E-01
  1.72500000E-01  4.91000000E-02  1.65400000E+00  4.69000000E-01  1.51000000E-01
  1.09300000E+00  3.64000000E-01  1.53300000E+04  2.29900000E+03  5.22400000E+02
  1.47300000E+02  4.75500000E+01  1.67600000E+01  6.20700000E+00  5.22400000E+02
  1.47300000E+02  4.75500000E+01  1.67600000E+01  6.20700000E+00  6.88200000E-01
  1.75200000E+00  2.38400000E-01  7.37600000E-02  3.44600000E+01  7.74900000E+00
  2.28000000E+00  7.15600000E-01  2.14000000E-01  5.97400000E-02  2.31400000E+00
  6.45000000E-01  2.14000000E-01  1.42800000E+00  5.00000000E-01
Contraction coefficients                   R   N=         119
  2.54948632E-02  1.90362766E-01  8.52162022E-01  1.00000000E+00  1.00000000E+00
  1.00000000E+00  1.00000000E+00  1.00000000E+00  1.00000000E+00  1.00000000E+00
  1.00000000E+00  5.19808943E-04  4.02025621E-03  2.07128267E-02  8.10105536E-02
  2.35962985E-01  4.42653446E-01  3.57064423E-01 -4.42115008E-05 -1.22591041E-03
 -1.05517725E-02 -6.74452633E-02 -1.71198607E-01  1.07329856E+00  1.00000000E+00
  1.00000000E+00  1.00000000E+00  4.11634896E-02  2.57762836E-01  8.02419274E-01
  1.00000000E+00  1.00000000E+00  1.00000000E+00  1.00000000E+00  1.00000000E+00
  1.00000000E+00  1.00000000E+00  1.00000000E+00  5.19808943E-04  4.02025621E-03
  2.07128267E-02  8.10105536E-02  2.35962985E-01  4.42653446E-01  3.57064423E-01
 -4.42115008E-05 -1.22591041E-03 -1.05517725E-02 -6.74452633E-02 -1.71198607E-01
  1.07329856E+00  1.00000000E+00  1.00000000E+00  1.00000000E+00  4.11634896E-02
  2.57762836E-01  8.02419274E-01  1.00000000E+00  1.00000000E+00  1.00000000E+00
  1.00000000E+00  1.00000000E+00  1.00000000E+00  1.00000000E+00  1.00000000E+00
  5.34563860E-04  4.13435660E-03  2.12335358E-02  8.25006224E-02  2.38138871E-01
  4.42551547E-01  3.53757422E-01 -4.89867350E-05 -1.19527323E-03 -1.03490714E-02
 -6.48680190E-02 -1.71552477E-01  1.07289568E+00  1.00000000E+00  1.00000000E+00
  1.00000000E+00  3.98072123E-02  2.49002660E-01  8.10479727E-01  1.00000000E+00
  1.00000000E+00  1.00000000E+00  1.00000000E+00  1.00000000E+00  1.00000000E+00
  1.00000000E+00  1.00000000E+00  5.19808943E-04  4.02025621E-03  2.07128267E-02
  8.10105536E-02  2.35962985E-01  4.42653446E-01  3.57064423E-01 -4.42115008E-05
 -1.22591041E-03 -1.05517725E-02 -6.74452633E-02 -1.71198607E-01  1.07329856E+00
  1.00000000E+00  1.00000000E+00  1.00000000E+00  4.11634896E-02  2.57762836E-01
  8.02419274E-01  1.00000000E+00  1.00000000E+00  1.00000000E+00  1.00000000E+00
  1.00000000E+00  1.00000000E+00  1.00000000E+00  1.00000000E+00
Coordinates of each shell                  R   N=         195
  2.93306037E+00  3.15937203E+00  3.64138674E-31  2.93306037E+00  3.15937203E+00
  3.64138674E-31  2.93306037E+00  3.15937203E+00  3.64138674E-31  2.93306037E+00
  3.15937203E+00  3.64138674E-31  2.93306037E+00  3.15937203E+00  3.64138674E-31
  2.93306037E+00  3.15937203E+00  3.64138674E-31  2.93306037E+00  3.15937203E+00
  3.64138674E-31  2.93306037E+00  3.15937203E+00  3.64138674E-31  2.93306037E+00
  3.15937203E+00  3.64138674E-31  2.74804845E+00  1.33764426E+00  1.02420097E-31
  2.74804845E+00  1.33764426E+00  1.02420097E-31  2.74804845E+00  1.33764426E+00
  1.02420097E-31  2.74804845E+00  1.33764426E+00  1.02420097E-31  2.74804845E+00
  1.33764426E+00  1.02420097E-31  2.74804845E+00  1.33764426E+00  1.02420097E-31
  2.74804845E+00  1.33764426E+00  1.02420097E-31  2.74804845E+00  1.33764426E+00
  1.02420097E-31  2.74804845E+00  1.33764426E+00  1.02420097E-31  2.74804845E+00
  1.33764426E+00  1.02420097E-31  2.74804845E+00  1.33764426E+00  1.02420097E-31
  2.74804845E+00  1.33764426E+00  1.02420097E-31  2.74804845E+00  1.33764426E+00
  1.02420097E-31  2.74804845E+00  1.33764426E+00  1.02420097E-31  9.59716730E-18
  1.25147738E+00  1.84160504E-31  9.59716730E-18  1.25147738E+00  1.84160504E-31
  9.59716730E-18  1.25147738E+00  1.84160504E-31  9.59716730E-18  1.25147738E+00
  1.84160504E-31  9.59716730E-18  1.25147738E+00  1.84160504E-31  9.59716730E-18
  1.25147738E+00  1.84160504E-31  9.59716730E-18  1.25147738E+00  1.84160504E-31
  9.59716730E-18  1.25147738E+00  1.84160504E-31  9.59716730E-18  1.25147738E+00
  1.84160504E-31  9.59716730E-18  1.25147738E+00  1.84160504E-31  9.59716730E-18
  1.25147738E+00  1.84160504E-31  9.59716730E-18  1.25147738E+00  1.84160504E-31
  9.59716730E-18  1.25147738E+00  1.84160504E-31  9.59716730E-18  1.25147738E+00
  1.84160504E-31 -4.94407730E-01 -1.41570129E+00 -1.91339424E-31 -4.94407730E-01
 -1.41570129E+00 -1.91339424E-31 -4.94407730E-01 -1.41570129E+00 -1.91339424E-31
 -4.94407730E-01 -1.41570129E+00 -1.91339424E-31 -4.94407730E-01 -1.41570129E+00
 -1.91339424E-31 -4.94407730E-01 -1.41570129E+00 -1.91339424E-31 -4.94407730E-01
 -1.41570129E+00 -1.91339424E-31 -4.94407730E-01 -1.41570129E+00 -1.91339424E-31
 -4.94407730E-01 -1.41570129E+00 -1.91339424E-31 -4.94407730E-01 -1.41570129E+00
 -1.91339424E-31 -4.94407730E-01 -1.41570129E+00 -1.91339424E-31 -4.94407730E-01
 -1.41570129E+00 -1.91339424E-31 -4.94407730E-01 -1.41570129E+00 -1.91339424E-31
 -4.94407730E-01 -1.41570129E+00 -1.91339424E-31 -2.68207423E+00 -1.74530452E+00
 -1.64675940E-31 -2.68207423E+00 -1.74530452E+00 -1.64675940E-31 -2.68207423E+00
 -1.74530452E+00 -1.64675940E-31 -2.68207423E+00 -1.74530452E+00 -1.64675940E-31
 -2.68207423E+00 -1.74530452E+00 -1.64675940E-31 -2.68207423E+00 -1.74530452E+00
 -1.64675940E-31 -2.68207423E+00 -1.74530452E+00 -1.64675940E-31 -2.68207423E+00
 -1.74530452E+00 -1.64675940E-31 -2.68207423E+00 -1.74530452E+00 -1.64675940E-31
 -2.68207423E+00 -1.74530452E+00 -1.64675940E-31 -2.68207423E+00 -1.74530452E+00
 -1.64675940E-31 -2.68207423E+00 -1.74530452E+00 -1.64675940E-31 -2.68207423E+00
 -1.74530452E+00 -1.64675940E-31 -2.68207423E+00 -1.74530452E+00 -1.64675940E-31
Num ILSW                                   I              100
ILSW                                       I   N=         100
           0           0           0           0           2           0
           0           0           0           0           0          -1
           5           0           0           0           0           0
           0           0           0           0           0           0
           1           0           0           0           0           0
           0           0      100000           0          -1           0
           0           0           0           0           0           0
           0           0           0           1           0           0
           0 -2000000000           1           0           0           0
           0           0           4          52           0           0
           0           0           0           0           0           0
           0           0           0           5           0           1
           0           0           0           0           0           0
           0           0           0           0           0           0
           0           0           0           0           0           0
           0           0           0           0           0           0
           0           0           0           0
Num RLSW                                   I               52
RLSW                                       R   N=          52
  1.00000000E+00  1.00000000E+00  1.00000000E+00  1.00000000E+00  1.00000000E+00
  0.00000000E+00  0.00000000E+00  1.00000000E+00  0.00000000E+00  0.00000000E+00
  0.00000000E+00  0.00000000E+00  1.00000000E+00  0.00000000E+00  0.00000000E+00
  0.00000000E+00  0.00000000E+00  1.00000000E+00  0.00000000E+00  0.00000000E+00
  0.00000000E+00  0.00000000E+00  1.00000000E+00  0.00000000E+00  0.00000000E+00
  0.00000000E+00  0.00000000E+00  1.00000000E+00  0.00000000E+00  0.00000000E+00
  0.00000000E+00  0.00000000E+00  1.00000000E+00  0.00000000E+00  0.00000000E+00
  0.00000000E+00  0.00000000E+00  0.00000000E+00  1.00000000E+00  1.00000000E+00
  0.00000000E+00  1.00000000E+00  0.00000000E+00  0.00000000E+00  0.00000000E+00
  0.00000000E+00  0.00000000E+00  0.00000000E+00  0.00000000E+00  0.00000000E+00
  0.00000000E+00  0.00000000E+00
MxBond                                     I                2
NBond                                      I   N=           5
           1           2           2           2           1
IBond                                      I   N=          10
           2           0           1           3           2           4
           3           5           4           0
RBond                                      R   N=          10
  1.00000000E+00  0.00000000E+00  1.00000000E+00  1.00000000E+00  1.00000000E+00
  1.00000000E+00  1.00000000E+00  2.00000000E+00  2.00000000E+00  0.00000000E+00
Virial Ratio                               R      2.002219625726948E+00
SCF Energy                                 R     -2.795037899149303E+02
MP2 Energy                                 R     -2.804466176133442E+02
Total Energy                               R     -2.804466176133442E+02
Post-SCF wavefunction norm                 R      1.119255037780389E+00
RMS Density                                R      3.494499413586434E-09
Job Status                                 I                1
Nuclear derivative order                   I                0
External E-field                           R   N=          35
  0.00000000E+00  0.00000000E+00  0.00000000E+00  0.00000000E+00  0.00000000E+00
  0.00000000E+00  0.00000000E+00  0.00000000E+00  0.00000000E+00  0.00000000E+00
  0.00000000E+00  0.00000000E+00  0.00000000E+00  0.00000000E+00  0.00000000E+00
  0.00000000E+00  0.00000000E+00  0.00000000E+00  0.00000000E+00  0.00000000E+00
  0.00000000E+00  0.00000000E+00  0.00000000E+00  0.00000000E+00  0.00000000E+00
  0.00000000E+00  0.00000000E+00  0.00000000E+00  0.00000000E+00  0.00000000E+00
  0.00000000E+00  0.00000000E+00  0.00000000E+00  0.00000000E+00  0.00000000E+00
IOpCl                                      I                0
IROHF                                      I                0
Alpha Orbital Energies                     R   N=         207
 -2.06948315E+01 -2.06787225E+01 -2.06628276E+01 -1.58091034E+01 -1.62566103E+00
 -1.49888719E+00 -1.26146859E+00 -9.46403608E-01 -7.74699599E-01 -7.62042808E-01
 -7.16014360E-01 -6.78168014E-01 -6.19219875E-01 -5.90621117E-01 -4.87557581E-01
 -4.73337841E-01  2.89853587E-02  7.46936414E-02  8.63540111E-02  1.01965093E-01
  1.33750694E-01  1.34056844E-01  1.43606534E-01  1.54073485E-01  1.77744188E-01
  1.94204691E-01  1.99931440E-01  2.09177723E-01  2.20097523E-01  2.34375163E-01
  2.37674997E-01  2.66141530E-01  3.01214496E-01  3.03378119E-01  3.13138177E-01
  3.45176851E-01  3.50826473E-01  3.88535390E-01  4.21115635E-01  4.30884179E-01
  5.28451687E-01  5.30215106E-01  5.61120979E-01  5.82901583E-01  6.27638951E-01
  6.39684629E-01  6.75121645E-01  6.84367294E-01  7.05498415E-01  7.10620617E-01
  7.23855389E-01  7.27827560E-01  7.43914083E-01  7.91206687E-01  7.93067437E-01
  8.11106873E-01  8.11253259E-01  8.31789911E-01  8.69955142E-01  9.08375420E-01
  9.21072488E-01  9.28036181E-01  9.54393890E-01  9.80794807E-01  9.83724355E-01
  1.01456731E+00  1.05309014E+00  1.05597460E+00  1.08458107E+00  1.11944160E+00
  1.14363218E+00  1.19070889E+00  1.22140407E+00  1.23330209E+00  1.34151667E+00
  1.35483637E+00  1.38356127E+00  1.45704592E+00  1.48792448E+00  1.50786454E+00
  1.53954902E+00  1.56964134E+00  1.58430848E+00  1.61445375E+00  1.66574034E+00
  1.67006291E+00  1.70546507E+00  1.79331198E+00  1.83256615E+00  1.83873913E+00
  1.87778347E+00  1.91301168E+00  1.95635580E+00  1.99686806E+00  2.00767837E+00
  2.08531307E+00  2.12348803E+00  2.13528540E+00  2.14673530E+00  2.22900621E+00
  2.26295011E+00  2.26463879E+00  2.29364578E+00  2.31500659E+00  2.34994182E+00
  2.38595065E+00  2.42780286E+00  2.43416111E+00  2.45736323E+00  2.46569883E+00
  2.48044476E+00  2.50489509E+00  2.58740593E+00  2.59853452E+00  2.62647110E+00
  2.62675531E+00  2.63281396E+00  2.67042290E+00  2.76145163E+00  2.83504867E+00
  2.86586241E+00  2.89260614E+00  2.89285641E+00  2.94303160E+00  2.95920382E+00
  3.03418298E+00  3.07701562E+00  3.12928019E+00  3.20125214E+00  3.23238593E+00
  3.32083882E+00  3.34855888E+00  3.52067171E+00  3.65224733E+00  3.84949495E+00
  3.85068541E+00  4.14882113E+00  4.15828359E+00  4.18759932E+00  4.26809524E+00
  4.35147123E+00  4.39421009E+00  4.46203147E+00  4.52206319E+00  4.67025767E+00
  4.71360899E+00  4.80949316E+00  4.82575334E+00  4.84346629E+00  4.89806078E+00
  5.03103696E+00  5.08450707E+00  5.11173493E+00  5.14373705E+00  5.18558702E+00
  5.24872857E+00  5.28029137E+00  5.31333015E+00  5.33219937E+00  5.36500459E+00
  5.61142071E+00  5.67788776E+00  5.78285693E+00  5.82750099E+00  5.96342929E+00
  6.17869704E+00  6.30910853E+00  6.34752627E+00  6.40007903E+00  6.49913863E+00
  6.51043169E+00  6.61467716E+00  6.66680082E+00  6.70842297E+00  6.75545239E+00
  6.76300352E+00  6.83901117E+00  6.90629097E+00  7.01987493E+00  7.05497989E+00
  7.06043365E+00  7.08984512E+00  7.13163448E+00  7.15633768E+00  7.18258411E+00
  7.23540709E+00  7.24022982E+00  7.30329090E+00  7.32923316E+00  7.35363675E+00
  7.40642283E+00  7.44237344E+00  7.49086013E+00  7.61225743E+00  7.62790169E+00
  7.64726150E+00  7.67999210E+00  7.79826687E+00  7.89374853E+00  8.12106031E+00
  8.32469212E+00  8.40905263E+00  8.55578574E+00  1.34567443E+01  1.45254396E+01
  1.51822947E+01  1.61995608E+01
Alpha MO coefficients                      R   N=       42849
  9.04417232E-05 -6.05037825E-04 -6.89053195E-04 -4.09585974E-06 -1.99753304E-05
 -2.70264110E-05  0.00000000E+00 -3.77573751E-05  4.92220924E-05  0.00000000E+00
  8.50937357E-05  2.40460100E-05  0.00000000E+00  3.10845010E-05  0.00000000E+00
  0.00000000E+00 -5.08065734E-05  2.00260927E-05 -5.88153117E-06  0.00000000E+00
  0.00000000E+00 -1.37206511E-04  1.18716400E-04  4.42479626E-03 -2.84356602E-04
  8.59186447E-06  1.57308373E-03  1.81900414E-03  1.06243827E-04  6.90570204E-06
  0.00000000E+00 -6.19348924E-04 -3.58251238E-05  0.00000000E+00 -1.14474716E-03
  7.73763269E-04  0.00000000E+00 -4.07435627E-04  6.11782769E-05  0.00000000E+00
  2.89448186E-05  0.00000000E+00  0.00000000E+00 -5.35666202E-05  6.89624682E-06
 -3.77891515E-04  0.00000000E+00  0.00000000E+00  7.39863090E-04 -4.26662577E-05
 -4.45097570E-04  0.00000000E+00  0.00000000E+00  2.58768726E-04 -2.57135940E-05
  0.00000000E+00  7.98349176E-05  1.24155684E-05  0.00000000E+00  0.00000000E+00
 -1.09354298E-04 -2.43285161E-06  0.00000000E+00  2.54847701E-04 -2.84508153E-05
  0.00000000E+00  0.00000000E+00 -3.47396159E-04  5.70320258E-05  9.76899517E-01
 -9.23190767E-03  4.33504170E-02  1.84703054E-03 -1.00488264E-03  1.47804797E-03
 -1.40952448E-03  0.00000000E+00 -1.40755382E-03  1.46560770E-03  0.00000000E+00
  4.88357729E-05 -1.09684267E-03  0.00000000E+00 -1.34025231E-04  1.82331213E-06
  0.00000000E+00  3.98010715E-05  0.00000000E+00  0.00000000E+00 -4.14544119E-05
  2.34444793E-05  7.68428101E-04  0.00000000E+00  0.00000000E+00 -1.98383470E-04
 -4.04707480E-04 -3.42345816E-04  0.00000000E+00  0.00000000E+00 -3.13105241E-04
 -3.79653755E-04  0.00000000E+00  4.52843996E-05 -5.13550638E-05  0.00000000E+00
  0.00000000E+00 -4.02544427E-05 -1.66911269E-05  0.00000000E+00  2.69190819E-05
  1.15469536E-05  0.00000000E+00  0.00000000E+00 -3.11594498E-04 -1.53141175E-04
  4.87577756E-05  1.06981441E-04 -2.83730347E-04 -6.39653228E-04 -1.18793765E-04
 -2.72901908E-05 -1.00567752E-04  0.00000000E+00  2.85795417E-04  8.25737989E-04
  0.00000000E+00 -8.06772703E-04 -3.51694089E-04  0.00000000E+00 -1.23635014E-04
 -1.56671302E-05  0.00000000E+00 -2.80395015E-05  0.00000000E+00  0.00000000E+00
 -4.75721390E-05  2.08114300E-05 -3.52940807E-04  0.00000000E+00  0.00000000E+00
 -8.65933516E-04  1.34159366E-04 -4.54705089E-05  0.00000000E+00  0.00000000E+00
  8.36565038E-05 -1.28859843E-04  0.00000000E+00 -2.14648705E-05 -1.23011240E-04
  0.00000000E+00  0.00000000E+00 -6.76979955E-05 -1.37709671E-04  0.00000000E+00
 -4.04662168E-06 -1.61987298E-04  0.00000000E+00  0.00000000E+00  2.17734426E-05
 -4.07200236E-04 -1.07188761E-03  9.98903931E-05 -5.47468037E-05 -2.00612966E-04
  1.69762993E-04 -5.42445332E-06 -2.41083590E-05  0.00000000E+00  6.96098952E-05
  1.48990774E-04  0.00000000E+00  2.66181199E-04  1.58833134E-04  0.00000000E+00
  1.37241954E-04  2.45344991E-05  0.00000000E+00 -2.69336897E-06  0.00000000E+00
  0.00000000E+00 -1.82109677E-05  2.08945349E-06 -2.48555489E-06  0.00000000E+00
  0.00000000E+00  8.69278572E-05  7.27508481E-05 -1.05742445E-04  0.00000000E+00
  0.00000000E+00  1.75860382E-04  1.45801874E-04  0.00000000E+00  1.67076380E-05
 -1.79170383E-06  0.00000000E+00  0.00000000E+00 -1.16139351E-06 -1.40763857E-05
  0.00000000E+00 -3.79416993E-05  4.34162979E-05  0.00000000E+00  0.00000000E+00
  8.39571975E-05  8.45904616E-05  3.99228327E-05 -9.99491626E-04 -4.84230997E-04
 -8.76964248E-06 -2.12881086E-05  1.54595322E-05  0.00000000E+00 -3.53279235E-06
  2.73246703E-04  0.00000000E+00 -4.45869372E-05  1.32847462E-04  0.00000000E+00
  2.60974614E-05  0.00000000E+00  0.00000000E+00  1.17064946E-05  1.16214266E-05
 -3.06625182E-05  0.00000000E+00  0.00000000E+00  1.44740462E-05  3.84712335E-05
  1.55833087E-04  8.36847861E-05 -2.62876079E-05  7.84120130E-04  6.66135784E-04
  1.05964084E-05  2.66502418E-06  0.00000000E+00 -7.66814513E-05  1.28696521E-05
  0.00000000E+00  3.30655154E-04  9.36126203E-04  0.00000000E+00  1.36112038E-06
  8.52347639E-05  0.00000000E+00 -2.32504846E-06  0.00000000E+00  0.00000000E+00
 -2.25519160E-07 -5.22564848E-06 -3.59623164E-05  0.00000000E+00  0.00000000E+00
 -1.64748395E-05  8.01904303E-05 -2.30482231E-05  0.00000000E+00  0.00000000E+00
 -2.71097857E-04 -1.78805140E-04  0.00000000E+00  9.27882147E-06  6.36288889E-06
  0.00000000E+00  0.00000000E+00  2.25806359E-06 -1.89367068E-05  0.00000000E+00
 -4.05271924E-05 -4.01382783E-05  0.00000000E+00  0.00000000E+00 -7.86689717E-05
  2.60084457E-05  1.10881463E-03  5.32906560E-05  2.55441103E-05 -4.19806078E-05
 -4.44798600E-04  2.98980644E-06  1.77665906E-05  0.00000000E+00 -5.51931315E-05
 -6.22158069E-05  0.00000000E+00  2.12715243E-04 -2.82548609E-04  0.00000000E+00
 -1.99392354E-04 -8.04033145E-05  0.00000000E+00 -9.25134953E-06  0.00000000E+00
  0.00000000E+00  2.44528745E-05  2.14524805E-05  3.91319752E-06  0.00000000E+00
  0.00000000E+00 -1.33721796E-04 -5.72433541E-05 -7.88350910E-06  0.00000000E+00
  0.00000000E+00 -2.59277024E-04 -2.22697228E-04  0.00000000E+00  9.16987081E-07
 -1.98143137E-06  0.00000000E+00  0.00000000E+00 -1.29728641E-06 -9.39487595E-06
  0.00000000E+00 -4.36101118E-05  8.72166443E-06  0.00000000E+00  0.00000000E+00
 -7.57658289E-05  1.90597600E-04  2.56925664E-04  1.46112282E-03 -7.33041232E-05
 -1.62726055E-03  3.63011153E-04 -1.42625737E-04  1.70089755E-06  0.00000000E+00
 -2.11622841E-03 -4.16526466E-04  0.00000000E+00  1.06003291E-03  7.47045102E-04
  0.00000000E+00 -1.67516389E-04  5.30941141E-05  0.00000000E+00 -1.23155077E-04
  0.00000000E+00  0.00000000E+00  2.45721523E-04  9.37953865E-05 -4.37917351E-04
  0.00000000E+00  0.00000000E+00  9.04978080E-04 -9.48416443E-05  1.80495119E-05
  0.00000000E+00  0.00000000E+00 -3.43086627E-04 -1.33249761E-04  0.00000000E+00
  1.17249065E-07  1.60920808E-05  0.00000000E+00  0.00000000E+00  2.09154095E-05
  1.36286949E-05  0.00000000E+00  1.60410008E-04 -7.55319182E-05  0.00000000E+00
  0.00000000E+00 -2.31497697E-04  5.56904583E-05  9.76646647E-01 -9.84324386E-03
  4.35812553E-02  4.53116197E-03 -4.39057986E-04  2.15362960E-03  4.79120967E-04
  0.00000000E+00 -2.38721541E-03 -6.04895150E-04  0.00000000E+00  1.13409165E-03
 -1.67607573E-05  0.00000000E+00  4.96692091E-06 -4.55136501E-05  0.00000000E+00
 -2.32587540E-04  0.00000000E+00  0.00000000E+00  1.01431782E-04  3.26720667E-05
  3.94937903E-04  0.00000000E+00  0.00000000E+00 -8.41332134E-04 -4.21873499E-04
 -1.49548020E-04  0.00000000E+00  0.00000000E+00  2.48626225E-04  8.47506385E-06
  0.00000000E+00  5.26190379E-05  1.77152636E-05  0.00000000E+00  0.00000000E+00
 -2.17633584E-05 -1.29706697E-05  0.00000000E+00  1.41388325E-04  9.23409447E-06
  0.00000000E+00  0.00000000E+00 -1.92634697E-04 -1.43176304E-04  4.74456194E-04
  2.09853357E-03  1.44899055E-04  1.62341258E-05 -4.12771709E-05 -2.47837369E-04
  0.00000000E+00  1.05164904E-04 -1.28854636E-03  0.00000000E+00  3.11936868E-04
 -3.50230251E-04  0.00000000E+00 -3.64952177E-06  0.00000000E+00  0.00000000E+00
  7.52308014E-05  1.52088614E-05 -1.60869423E-04  0.00000000E+00  0.00000000E+00
 -5.37714004E-04 -2.01257763E-05  9.76830658E-01 -9.16718884E-03  4.34507242E-02
  1.38330559E-04 -1.18062688E-03 -1.56040952E-03  1.45079905E-03  0.00000000E+00
  1.57428476E-03 -1.29618846E-03  0.00000000E+00 -5.78570189E-04 -8.96248126E-04
  0.00000000E+00  5.75406604E-05 -3.92682286E-05  0.00000000E+00  2.96495151E-05
  0.00000000E+00  0.00000000E+00 -1.18788092E-04 -1.58815070E-06  7.60944870E-04
  0.00000000E+00  0.00000000E+00 -2.04891552E-04 -2.35052719E-04 -2.61145136E-04
  0.00000000E+00  0.00000000E+00  1.72317918E-04  1.27519882E-04  0.00000000E+00
 -6.41106106E-05  1.52916185E-06  0.00000000E+00  0.00000000E+00  1.88221839E-05
  9.51367684E-06  0.00000000E+00 -2.23977585E-06  1.23989636E-04  0.00000000E+00
  0.00000000E+00  2.61828891E-04  9.11573818E-05 -4.51929118E-03 -2.22369688E-04