title                                                                   
SP        RMP2-FC                                                     Aug-CC-pVTZ         
Number of atoms                            I                5
Info1-9                                    I   N=           9
          33          24           0           0           0         110
           1           2           1
Full Title                                 C   N=           1
title       
Route                                      C   N=           4
#p SP mp2/aug-cc-pvtz density=current           
Charge                                     I                0
Multiplicity                               I                1
Number of electrons                        I               32
Number of alpha electrons                  I               16
Number of beta electrons                   I               16
Number of basis functions                  I              207
Number of independent functions            I              207
Number of point charges in /Mol/           I                0
Number of translation vectors              I                0
Atomic numbers                             I   N=           5
           1           8           8           7           8
Nuclear charges                            R   N=           5
  1.00000000E+00  8.00000000E+00  8.00000000E+00  7.00000000E+00  8.00000000E+00
Current cartesian coordinates              R   N=          15
  2.92400991E+00  3.17757365E+00  1.19164405E-31  2.74761049E+00  1.35499177E+00
  1.57562502E-31 -1.31134658E-17  1.25583714E+00 -6.83952835E-33 -4.89626194E-01
 -1.45703477E+00 -1.79639597E-32 -2.68468880E+00 -1.73312019E+00 -6.93768904E-32
Number of symbols in /Mol/                 I                0
Force Field                                I                0
Atom Types                                 C   N=           5
                                                            
Int Atom Types                             I   N=           5
           0           0           0           0           0
MM charges                                 R   N=           5
  0.00000000E+00  0.00000000E+00  0.00000000E+00  0.00000000E+00  0.00000000E+00
Integer atomic weights                     I   N=           5
           1          16          16          14          16
Real atomic weights                        R   N=           5
  1.00782504E+00  1.59949146E+01  1.59949146E+01  1.40030740E+01  1.59949146E+01
Atom fragment info                         I   N=           5
           0           0           0           0           0
Atom residue num                           I   N=           5
           0           0           0           0           0
Nuclear spins                              I   N=           5
           1           0           0           2           0
Nuclear ZEff                               R   N=           5
 -1.00000000E+00 -5.60000000E+00 -5.60000000E+00 -4.55000000E+00 -5.60000000E+00
Nuclear ZNuc                               R   N=           5
  1.00000000E+00  8.00000000E+00  8.00000000E+00  7.00000000E+00  8.00000000E+00
Nuclear QMom                               R   N=           5
  0.00000000E+00  0.00000000E+00  0.00000000E+00  2.04400000E+00  0.00000000E+00
Nuclear GFac                               R   N=           5
  2.79284600E+00  0.00000000E+00  0.00000000E+00  4.03761000E-01  0.00000000E+00
MicOpt                                     I   N=           5
          -1          -1          -1          -1          -1
Number of residues                         I                0
Number of secondary structures             I                0
SymInf integers                            I   N=          26
           1           2           1           1           1           1
           1          -1           0           0           0           0
           0           0           0           0           0           0
           0           0           0           0           0           0
           0           0
RotTr to input orientation                 R   N=          12
 -9.95348939E-01 -9.89081316E-17 -9.63353030E-02  9.63353030E-02 -7.22134290E-17
 -9.95348939E-01  9.14914013E-17 -1.00000000E+00  8.14059047E-17  2.60429764E+00
  0.00000000E+00  3.44447994E+00
Number of contracted shells                I               65
Number of primitive shells                 I              119
Pure/Cartesian d shells                    I                0
Pure/Cartesian f shells                    I                0
Highest angular momentum                   I                3
Largest degree of contraction              I                7
Shell types                                I   N=          65
           0           0           0           0           1           1
           1          -2          -2           0           0           0
           0           0           1           1           1           1
          -2          -2          -2          -3          -3           0
           0           0           0           0           1           1
           1           1          -2          -2          -2          -3
          -3           0           0           0           0           0
           1           1           1           1          -2          -2
          -2          -3          -3           0           0           0
           0           0           1           1           1           1
          -2          -2          -2          -3          -3
Number of primitives per shell             I   N=          65
           3           1           1           1           1           1
           1           1           1           7           6           1
           1           1           3           1           1           1
           1           1           1           1           1           7
           6           1           1           1           3           1
           1           1           1           1           1           1
           1           7           6           1           1           1
           3           1           1           1           1           1
           1           1           1           7           6           1
           1           1           3           1           1           1
           1           1           1           1           1
Shell to atom map                          I   N=          65
           1           1           1           1           1           1
           1           1           1           2           2           2
           2           2           2           2           2           2
           2           2           2           2           2           3
           3           3           3           3           3           3
           3           3           3           3           3           3
           3           4           4           4           4           4
           4           4           4           4           4           4
           4           4           4           5           5           5
           5           5           5           5           5           5
           5           5           5           5           5
Primitive exponents                        R   N=         119
  3.38700000E+01  5.09500000E+00  1.15900000E+00  3.25800000E-01  1.02700000E-01
  2.52600000E-02  1.40700000E+00  3.88000000E-01  1.02000000E-01  1.05700000E+00
  2.47000000E-01  1.53300000E+04  2.29900000E+03  5.22400000E+02  1.47300000E+02
  4.75500000E+01  1.67600000E+01  6.20700000E+00  5.22400000E+02  1.47300000E+02
  4.75500000E+01  1.67600000E+01  6.20700000E+00  6.88200000E-01  1.75200000E+00
  2.38400000E-01  7.37600000E-02  3.44600000E+01  7.74900000E+00  2.28000000E+00
  7.15600000E-01  2.14000000E-01  5.97400000E-02  2.31400000E+00  6.45000000E-01
  2.14000000E-01  1.42800000E+00  5.00000000E-01  1.53300000E+04  2.29900000E+03
  5.22400000E+02  1.47300000E+02  4.75500000E+01  1.67600000E+01  6.20700000E+00
  5.22400000E+02  1.47300000E+02  4.75500000E+01  1.67600000E+01  6.20700000E+00
  6.88200000E-01  1.75200000E+00  2.38400000E-01  7.37600000E-02  3.44600000E+01
  7.74900000E+00  2.28000000E+00  7.15600000E-01  2.14000000E-01  5.97400000E-02
  2.31400000E+00  6.45000000E-01  2.14000000E-01  1.42800000E+00  5.00000000E-01
  1.14200000E+04  1.71200000E+03  3.89300000E+02  1.10000000E+02  3.55700000E+01
  1.25400000E+01  4.64400000E+00  3.89300000E+02  1.10000000E+02  3.55700000E+01
  1.25400000E+01  4.64400000E+00  5.11800000E-01  1.29300000E+00  1.78700000E-01
  5.76000000E-02  2.66300000E+01  5.94800000E+00  1.74200000E+00  5.55000000E-01
  1.72500000E-01  4.91000000E-02  1.65400000E+00  4.69000000E-01  1.51000000E-01
  1.09300000E+00  3.64000000E-01  1.53300000E+04  2.29900000E+03  5.22400000E+02
  1.47300000E+02  4.75500000E+01  1.67600000E+01  6.20700000E+00  5.22400000E+02
  1.47300000E+02  4.75500000E+01  1.67600000E+01  6.20700000E+00  6.88200000E-01
  1.75200000E+00  2.38400000E-01  7.37600000E-02  3.44600000E+01  7.74900000E+00
  2.28000000E+00  7.15600000E-01  2.14000000E-01  5.97400000E-02  2.31400000E+00
  6.45000000E-01  2.14000000E-01  1.42800000E+00  5.00000000E-01
Contraction coefficients                   R   N=         119
  2.54948632E-02  1.90362766E-01  8.52162022E-01  1.00000000E+00  1.00000000E+00
  1.00000000E+00  1.00000000E+00  1.00000000E+00  1.00000000E+00  1.00000000E+00
  1.00000000E+00  5.19808943E-04  4.02025621E-03  2.07128267E-02  8.10105536E-02
  2.35962985E-01  4.42653446E-01  3.57064423E-01 -4.42115008E-05 -1.22591041E-03
 -1.05517725E-02 -6.74452633E-02 -1.71198607E-01  1.07329856E+00  1.00000000E+00
  1.00000000E+00  1.00000000E+00  4.11634896E-02  2.57762836E-01  8.02419274E-01
  1.00000000E+00  1.00000000E+00  1.00000000E+00  1.00000000E+00  1.00000000E+00
  1.00000000E+00  1.00000000E+00  1.00000000E+00  5.19808943E-04  4.02025621E-03
  2.07128267E-02  8.10105536E-02  2.35962985E-01  4.42653446E-01  3.57064423E-01
 -4.42115008E-05 -1.22591041E-03 -1.05517725E-02 -6.74452633E-02 -1.71198607E-01
  1.07329856E+00  1.00000000E+00  1.00000000E+00  1.00000000E+00  4.11634896E-02
  2.57762836E-01  8.02419274E-01  1.00000000E+00  1.00000000E+00  1.00000000E+00
  1.00000000E+00  1.00000000E+00  1.00000000E+00  1.00000000E+00  1.00000000E+00
  5.34563860E-04  4.13435660E-03  2.12335358E-02  8.25006224E-02  2.38138871E-01
  4.42551547E-01  3.53757422E-01 -4.89867350E-05 -1.19527323E-03 -1.03490714E-02
 -6.48680190E-02 -1.71552477E-01  1.07289568E+00  1.00000000E+00  1.00000000E+00
  1.00000000E+00  3.98072123E-02  2.49002660E-01  8.10479727E-01  1.00000000E+00
  1.00000000E+00  1.00000000E+00  1.00000000E+00  1.00000000E+00  1.00000000E+00
  1.00000000E+00  1.00000000E+00  5.19808943E-04  4.02025621E-03  2.07128267E-02
  8.10105536E-02  2.35962985E-01  4.42653446E-01  3.57064423E-01 -4.42115008E-05
 -1.22591041E-03 -1.05517725E-02 -6.74452633E-02 -1.71198607E-01  1.07329856E+00
  1.00000000E+00  1.00000000E+00  1.00000000E+00  4.11634896E-02  2.57762836E-01
  8.02419274E-01  1.00000000E+00  1.00000000E+00  1.00000000E+00  1.00000000E+00
  1.00000000E+00  1.00000000E+00  1.00000000E+00  1.00000000E+00
Coordinates of each shell                  R   N=         195
  2.92400991E+00  3.17757365E+00  7.05197023E-32  2.92400991E+00  3.17757365E+00
  7.05197023E-32  2.92400991E+00  3.17757365E+00  7.05197023E-32  2.92400991E+00
  3.17757365E+00  7.05197023E-32  2.92400991E+00  3.17757365E+00  7.05197023E-32
  2.92400991E+00  3.17757365E+00  7.05197023E-32  2.92400991E+00  3.17757365E+00
  7.05197023E-32  2.92400991E+00  3.17757365E+00  7.05197023E-32  2.92400991E+00
  3.17757365E+00  7.05197023E-32  2.74761049E+00  1.35499177E+00  7.63165035E-32
  2.74761049E+00  1.35499177E+00  7.63165035E-32  2.74761049E+00  1.35499177E+00
  7.63165035E-32  2.74761049E+00  1.35499177E+00  7.63165035E-32  2.74761049E+00
  1.35499177E+00  7.63165035E-32  2.74761049E+00  1.35499177E+00  7.63165035E-32
  2.74761049E+00  1.35499177E+00  7.63165035E-32  2.74761049E+00  1.35499177E+00
  7.63165035E-32  2.74761049E+00  1.35499177E+00  7.63165035E-32  2.74761049E+00
  1.35499177E+00  7.63165035E-32  2.74761049E+00  1.35499177E+00  7.63165035E-32
  2.74761049E+00  1.35499177E+00  7.63165035E-32  2.74761049E+00  1.35499177E+00
  7.63165035E-32  2.74761049E+00  1.35499177E+00  7.63165035E-32  1.21252387E-17
  1.25583714E+00 -7.73969393E-33  1.21252387E-17  1.25583714E+00 -7.73969393E-33
  1.21252387E-17  1.25583714E+00 -7.73969393E-33  1.21252387E-17  1.25583714E+00
 -7.73969393E-33  1.21252387E-17  1.25583714E+00 -7.73969393E-33  1.21252387E-17
  1.25583714E+00 -7.73969393E-33  1.21252387E-17  1.25583714E+00 -7.73969393E-33
  1.21252387E-17  1.25583714E+00 -7.73969393E-33  1.21252387E-17  1.25583714E+00
 -7.73969393E-33  1.21252387E-17  1.25583714E+00 -7.73969393E-33  1.21252387E-17
  1.25583714E+00 -7.73969393E-33  1.21252387E-17  1.25583714E+00 -7.73969393E-33
  1.21252387E-17  1.25583714E+00 -7.73969393E-33  1.21252387E-17  1.25583714E+00
 -7.73969393E-33 -4.89626194E-01 -1.45703477E+00 -6.10810188E-33 -4.89626194E-01
 -1.45703477E+00 -6.10810188E-33 -4.89626194E-01 -1.45703477E+00 -6.10810188E-33
 -4.89626194E-01 -1.45703477E+00 -6.10810188E-33 -4.89626194E-01 -1.45703477E+00
 -6.10810188E-33 -4.89626194E-01 -1.45703477E+00 -6.10810188E-33 -4.89626194E-01
 -1.45703477E+00 -6.10810188E-33 -4.89626194E-01 -1.45703477E+00 -6.10810188E-33
 -4.89626194E-01 -1.45703477E+00 -6.10810188E-33 -4.89626194E-01 -1.45703477E+00
 -6.10810188E-33 -4.89626194E-01 -1.45703477E+00 -6.10810188E-33 -4.89626194E-01
 -1.45703477E+00 -6.10810188E-33 -4.89626194E-01 -1.45703477E+00 -6.10810188E-33
 -4.89626194E-01 -1.45703477E+00 -6.10810188E-33 -2.68468880E+00 -1.73312019E+00
 -7.20471832E-32 -2.68468880E+00 -1.73312019E+00 -7.20471832E-32 -2.68468880E+00
 -1.73312019E+00 -7.20471832E-32 -2.68468880E+00 -1.73312019E+00 -7.20471832E-32
 -2.68468880E+00 -1.73312019E+00 -7.20471832E-32 -2.68468880E+00 -1.73312019E+00
 -7.20471832E-32 -2.68468880E+00 -1.73312019E+00 -7.20471832E-32 -2.68468880E+00
 -1.73312019E+00 -7.20471832E-32 -2.68468880E+00 -1.73312019E+00 -7.20471832E-32
 -2.68468880E+00 -1.73312019E+00 -7.20471832E-32 -2.68468880E+00 -1.73312019E+00
 -7.20471832E-32 -2.68468880E+00 -1.73312019E+00 -7.20471832E-32 -2.68468880E+00
 -1.73312019E+00 -7.20471832E-32 -2.68468880E+00 -1.73312019E+00 -7.20471832E-32
Num ILSW                                   I              100
ILSW                                       I   N=         100
           0           0           0           0           2           0
           0           0           0           0           0          -1
           5           0           0           0           0           0
           0           0           0           0           0           0
           1           0           0           0           0           0
           0           0      100000           0          -1           0
           0           0           0           0           0           0
           0           0           0           1           0           0
           0 -2000000000           1           0           0           0
           0           0           4          52           0           0
           0           0           0           0           0           0
           0           0           0           5           0           1
           0           0           0           0           0           0
           0           0           0           0           0           0
           0           0           0           0           0           0
           0           0           0           0           0           0
           0           0           0           0
Num RLSW                                   I               52
RLSW                                       R   N=          52
  1.00000000E+00  1.00000000E+00  1.00000000E+00  1.00000000E+00  1.00000000E+00
  0.00000000E+00  0.00000000E+00  1.00000000E+00  0.00000000E+00  0.00000000E+00
  0.00000000E+00  0.00000000E+00  1.00000000E+00  0.00000000E+00  0.00000000E+00
  0.00000000E+00  0.00000000E+00  1.00000000E+00  0.00000000E+00  0.00000000E+00
  0.00000000E+00  0.00000000E+00  1.00000000E+00  0.00000000E+00  0.00000000E+00
  0.00000000E+00  0.00000000E+00  1.00000000E+00  0.00000000E+00  0.00000000E+00
  0.00000000E+00  0.00000000E+00  1.00000000E+00  0.00000000E+00  0.00000000E+00
  0.00000000E+00  0.00000000E+00  0.00000000E+00  1.00000000E+00  1.00000000E+00
  0.00000000E+00  1.00000000E+00  0.00000000E+00  0.00000000E+00  0.00000000E+00
  0.00000000E+00  0.00000000E+00  0.00000000E+00  0.00000000E+00  0.00000000E+00
  0.00000000E+00  0.00000000E+00
MxBond                                     I                2
NBond                                      I   N=           5
           1           2           2           2           1
IBond                                      I   N=          10
           2           0           1           3           2           4
           3           5           4           0
RBond                                      R   N=          10
  1.00000000E+00  0.00000000E+00  1.00000000E+00  1.00000000E+00  1.00000000E+00
  1.00000000E+00  1.00000000E+00  2.00000000E+00  2.00000000E+00  0.00000000E+00
Virial Ratio                               R      2.002310140795673E+00
SCF Energy                                 R     -2.795015711648699E+02
MP2 Energy                                 R     -2.804465278484924E+02
Total Energy                               R     -2.804465278484924E+02
Post-SCF wavefunction norm                 R      1.120154692047103E+00
RMS Density                                R      3.722350726078632E-09
Job Status                                 I                1
Nuclear derivative order                   I                0
External E-field                           R   N=          35
  0.00000000E+00  0.00000000E+00  0.00000000E+00  0.00000000E+00  0.00000000E+00
  0.00000000E+00  0.00000000E+00  0.00000000E+00  0.00000000E+00  0.00000000E+00
  0.00000000E+00  0.00000000E+00  0.00000000E+00  0.00000000E+00  0.00000000E+00
  0.00000000E+00  0.00000000E+00  0.00000000E+00  0.00000000E+00  0.00000000E+00
  0.00000000E+00  0.00000000E+00  0.00000000E+00  0.00000000E+00  0.00000000E+00
  0.00000000E+00  0.00000000E+00  0.00000000E+00  0.00000000E+00  0.00000000E+00
  0.00000000E+00  0.00000000E+00  0.00000000E+00  0.00000000E+00  0.00000000E+00
IOpCl                                      I                0
IROHF                                      I                0
Alpha Orbital Energies                     R   N=         207
 -2.06901849E+01 -2.06837004E+01 -2.06588810E+01 -1.58134002E+01 -1.62545488E+00
 -1.49448511E+00 -1.25302528E+00 -9.48520457E-01 -7.71847852E-01 -7.59767603E-01
 -7.12127105E-01 -6.78927545E-01 -6.19780971E-01 -5.87933650E-01 -4.84421330E-01
 -4.74454674E-01  2.97602403E-02  7.09597222E-02  8.62640303E-02  1.01680659E-01
  1.33858704E-01  1.33858908E-01  1.44169570E-01  1.54410012E-01  1.78438314E-01
  1.94093861E-01  1.99875714E-01  2.06657785E-01  2.20775172E-01  2.37088376E-01
  2.37609905E-01  2.67237880E-01  2.92043716E-01  3.03398109E-01  3.10176748E-01
  3.43929329E-01  3.49533817E-01  3.87763244E-01  4.22697568E-01  4.32248580E-01
  5.27988131E-01  5.28850079E-01  5.57847549E-01  5.79999045E-01  6.25025021E-01
  6.41658601E-01  6.74885512E-01  6.84713670E-01  7.04043708E-01  7.11849882E-01
  7.23339924E-01  7.29119271E-01  7.43060421E-01  7.92876472E-01  7.94508084E-01
  8.11305072E-01  8.13364762E-01  8.31369252E-01  8.68147498E-01  9.09379775E-01
  9.22517798E-01  9.29851685E-01  9.56327881E-01  9.74274854E-01  9.85046744E-01
  1.01710729E+00  1.05193430E+00  1.05503086E+00  1.08327664E+00  1.11722115E+00
  1.14219230E+00  1.19059105E+00  1.21761650E+00  1.23353899E+00  1.33968066E+00
  1.35309713E+00  1.38857436E+00  1.45611210E+00  1.48752106E+00  1.50711376E+00
  1.53768242E+00  1.56855323E+00  1.57942104E+00  1.61231435E+00  1.66474191E+00
  1.67202668E+00  1.70151447E+00  1.79180328E+00  1.82947293E+00  1.83525056E+00
  1.88168234E+00  1.90716228E+00  1.95683858E+00  1.99399552E+00  2.00220678E+00
  2.08172238E+00  2.12358175E+00  2.13006693E+00  2.15205514E+00  2.22696434E+00
  2.26593254E+00  2.26870359E+00  2.28950836E+00  2.31474556E+00  2.34815065E+00
  2.38641507E+00  2.42763113E+00  2.42812579E+00  2.45027171E+00  2.45779686E+00
  2.47939527E+00  2.50053988E+00  2.58830448E+00  2.59967721E+00  2.62193116E+00
  2.62495116E+00  2.63404497E+00  2.67296570E+00  2.75179203E+00  2.81315978E+00
  2.84770029E+00  2.89332510E+00  2.89549194E+00  2.94438038E+00  2.95105711E+00
  3.02767505E+00  3.06294182E+00  3.12840746E+00  3.20540002E+00  3.22322696E+00
  3.32013884E+00  3.33644796E+00  3.52918241E+00  3.63662481E+00  3.83851150E+00
  3.84399040E+00  4.14988601E+00  4.16942905E+00  4.18519618E+00  4.25824351E+00
  4.34762774E+00  4.39363698E+00  4.46343665E+00  4.52097325E+00  4.65483309E+00
  4.71264807E+00  4.80079073E+00  4.83021548E+00  4.83235183E+00  4.89669693E+00
  5.02520949E+00  5.07597979E+00  5.10815213E+00  5.14665026E+00  5.17195599E+00
  5.24503684E+00  5.27507096E+00  5.30303999E+00  5.33134976E+00  5.35089237E+00
  5.60146043E+00  5.67338685E+00  5.78896066E+00  5.82946192E+00  5.95642299E+00
  6.16992051E+00  6.31169569E+00  6.33527635E+00  6.39503056E+00  6.49715657E+00
  6.51016111E+00  6.61573989E+00  6.66817297E+00  6.70744913E+00  6.75793658E+00
  6.76564660E+00  6.83718238E+00  6.89129485E+00  7.01915760E+00  7.05703354E+00
  7.06011403E+00  7.09257078E+00  7.12276555E+00  7.15234507E+00  7.18283651E+00
  7.22671641E+00  7.24294703E+00  7.30803964E+00  7.32560501E+00  7.34766451E+00
  7.39860235E+00  7.43107799E+00  7.48246997E+00  7.61001089E+00  7.61009090E+00
  7.63313241E+00  7.67081767E+00  7.80236970E+00  7.87803793E+00  8.09480293E+00
  8.31583380E+00  8.40918009E+00  8.54303497E+00  1.34038008E+01  1.43744010E+01
  1.51716093E+01  1.61609388E+01
Alpha MO coefficients                      R   N=       42849
  9.23593562E-05 -6.17466258E-04 -7.27836303E-04 -3.65334068E-06 -2.16282659E-05
 -2.76523527E-05  0.00000000E+00 -4.32971860E-05  5.38528068E-05  0.00000000E+00
  8.72675730E-05  3.71301571E-05  0.00000000E+00  3.17384738E-05  0.00000000E+00
  0.00000000E+00 -5.06843134E-05  2.05130228E-05 -3.42264240E-06  0.00000000E+00
  0.00000000E+00 -1.41911324E-04  1.18316334E-04  4.52675934E-03 -2.80569705E-04
  1.13616312E-05  1.52690056E-03  1.82521031E-03  1.06989788E-04  7.79624780E-06
  0.00000000E+00 -6.19494653E-04 -3.89056631E-05  0.00000000E+00 -1.10235410E-03
  7.64421673E-04  0.00000000E+00 -4.04034889E-04  6.06775606E-05  0.00000000E+00
  2.90095875E-05  0.00000000E+00  0.00000000E+00 -5.45815078E-05  5.82157511E-06
 -3.79074708E-04  0.00000000E+00  0.00000000E+00  7.44802302E-04 -3.11688143E-05
 -4.46193730E-04  0.00000000E+00  0.00000000E+00  2.50124330E-04 -5.42095893E-06
  0.00000000E+00  8.03932181E-05  1.29188538E-05  0.00000000E+00  0.00000000E+00
 -1.09650382E-04 -3.60134113E-06  0.00000000E+00  2.56539890E-04 -2.69197185E-05
  0.00000000E+00  0.00000000E+00 -3.55379995E-04  4.88191827E-05  9.76911089E-01
 -9.21683747E-03  4.33186693E-02  2.02121994E-03 -8.97949957E-04  1.50337832E-03
 -1.33768140E-03  0.00000000E+00 -1.44633662E-03  1.36550469E-03  0.00000000E+00
  8.29138293E-05 -1.13690137E-03  0.00000000E+00 -1.35881634E-04 -1.51878974E-05
  0.00000000E+00  4.69909559E-05  0.00000000E+00  0.00000000E+00 -3.34755634E-05
  2.24239642E-05  7.49425046E-04  0.00000000E+00  0.00000000E+00 -2.38578106E-04
 -3.90888738E-04 -3.68878637E-04  0.00000000E+00  0.00000000E+00 -2.97034101E-04
 -3.52253484E-04  0.00000000E+00  4.71266432E-05 -4.83405753E-05  0.00000000E+00
  0.00000000E+00 -3.96074448E-05 -1.44284341E-05  0.00000000E+00  2.59232126E-05
  2.25108939E-05  0.00000000E+00  0.00000000E+00 -3.02572056E-04 -1.42224321E-04
  3.87334308E-05  4.46820450E-05 -2.61932574E-04 -7.30964708E-04 -1.75446288E-04
 -2.59044493E-05 -9.60573518E-05  0.00000000E+00  2.72431304E-04  6.97414682E-04
  0.00000000E+00 -7.98692827E-04 -4.50631528E-04  0.00000000E+00 -1.23719988E-04
 -3.31872106E-05  0.00000000E+00 -1.83200634E-05  0.00000000E+00  0.00000000E+00
 -3.02368407E-05  1.68602623E-05 -3.25772938E-04  0.00000000E+00  0.00000000E+00
 -8.21659908E-04  1.22971518E-04 -3.60045922E-05  0.00000000E+00  0.00000000E+00
  8.79230560E-05 -1.24454759E-04  0.00000000E+00 -2.01864442E-05 -1.19365642E-04
  0.00000000E+00  0.00000000E+00 -6.19639441E-05 -1.36977345E-04  0.00000000E+00
  4.84909986E-06 -1.53818256E-04  0.00000000E+00  0.00000000E+00  4.26411321E-05
 -4.09903249E-04 -2.67485555E-03  1.32459559E-04 -1.23307891E-04 -2.15505762E-04
  1.62700724E-04 -7.53902738E-06 -2.45111325E-05  0.00000000E+00  7.47208803E-05
  1.47066262E-04  0.00000000E+00  2.51582093E-04  1.84009133E-04  0.00000000E+00
  1.33022773E-04  2.60925620E-05  0.00000000E+00 -4.04273267E-06  0.00000000E+00
  0.00000000E+00 -1.83072198E-05  2.08724905E-06  7.54585324E-06  0.00000000E+00
  0.00000000E+00  9.29703694E-05  7.42698273E-05 -9.46133682E-05  0.00000000E+00
  0.00000000E+00  1.81856571E-04  1.56238052E-04  0.00000000E+00  1.68363582E-05
 -2.06394668E-06  0.00000000E+00  0.00000000E+00 -1.83853386E-06 -1.25910687E-05
  0.00000000E+00 -3.02004658E-05  4.27339835E-05  0.00000000E+00  0.00000000E+00
  9.16074912E-05  8.81633741E-05  3.92844805E-05 -9.72450953E-04 -4.72288764E-04
 -1.06998791E-05 -1.92392449E-05  1.45313449E-05  0.00000000E+00 -6.05009969E-06
  2.60783118E-04  0.00000000E+00 -4.73073182E-05  1.29152140E-04  0.00000000E+00
  2.51399630E-05  0.00000000E+00  0.00000000E+00  1.05850840E-05  1.09363902E-05
 -3.15855102E-05  0.00000000E+00  0.00000000E+00  1.26681710E-05  3.62081692E-05
  1.13477809E-04  8.34590681E-05 -2.70714032E-05  7.15913821E-04  6.59410548E-04
  1.03283082E-05  2.53898397E-06  0.00000000E+00 -7.49639620E-05  1.10881674E-05
  0.00000000E+00  3.43126582E-04  9.22513580E-04  0.00000000E+00  9.34410475E-07
  8.69747109E-05  0.00000000E+00 -2.33277236E-06  0.00000000E+00  0.00000000E+00
 -1.55939210E-07 -4.39495258E-06 -3.39593907E-05  0.00000000E+00  0.00000000E+00
 -1.57918940E-05  7.33157687E-05 -2.35865681E-05  0.00000000E+00  0.00000000E+00
 -2.74468809E-04 -1.77354043E-04  0.00000000E+00  8.70096971E-06  6.26765628E-06
  0.00000000E+00  0.00000000E+00  2.25237544E-06 -1.80808270E-05  0.00000000E+00
 -3.78497037E-05 -3.96616853E-05  0.00000000E+00  0.00000000E+00 -7.41532192E-05
  2.58017659E-05  2.71478420E-03  3.98577729E-05  1.02300613E-04 -9.84421982E-05
 -5.08576757E-04  4.62539425E-06  1.14208692E-05  0.00000000E+00 -5.25203179E-05
 -3.69646928E-05  0.00000000E+00  2.83272755E-04 -1.89701113E-04  0.00000000E+00
 -2.01932568E-04 -7.10828340E-05  0.00000000E+00 -9.09570898E-06  0.00000000E+00
  0.00000000E+00  2.20992110E-05  2.22524285E-05  1.24980404E-05  0.00000000E+00
  0.00000000E+00 -1.11527948E-04 -6.62292076E-05  5.22453795E-06  0.00000000E+00
  0.00000000E+00 -2.21798856E-04 -2.51395242E-04  0.00000000E+00  5.48845305E-07
 -4.45770254E-06  0.00000000E+00  0.00000000E+00 -2.08151493E-06 -1.04306564E-05
  0.00000000E+00 -4.32992041E-05  8.69990532E-06  0.00000000E+00  0.00000000E+00
 -7.85536204E-05  1.75945859E-04  2.57689462E-04  1.45544809E-03 -8.17742205E-05
 -1.45533263E-03  4.23875400E-04 -1.45864750E-04  1.06236819E-06  0.00000000E+00
 -2.08338854E-03 -3.43453758E-04  0.00000000E+00  9.82480455E-04  7.31898396E-04
  0.00000000E+00 -1.61770250E-04  7.15674528E-05  0.00000000E+00 -1.22101222E-04
  0.00000000E+00  0.00000000E+00  2.48952486E-04  8.20825942E-05 -4.49684349E-04
  0.00000000E+00  0.00000000E+00  8.80177151E-04 -1.02856471E-04  2.27227621E-06
  0.00000000E+00  0.00000000E+00 -3.38774969E-04 -1.15075515E-04  0.00000000E+00
 -2.63724839E-06  1.42066127E-05  0.00000000E+00  0.00000000E+00  1.96242412E-05
  1.01147738E-05  0.00000000E+00  1.68453835E-04 -7.61621860E-05  0.00000000E+00
  0.00000000E+00 -2.32044000E-04  4.79192397E-05  9.76646093E-01 -9.85105394E-03
  4.35721527E-02  4.45623817E-03 -4.57822525E-04  2.16138144E-03  4.05085345E-04
  0.00000000E+00 -2.39839234E-03 -5.23665147E-04  0.00000000E+00  1.13110683E-03
 -3.63687503E-06  0.00000000E+00  1.75778430E-06 -4.76683259E-05  0.00000000E+00
 -2.33625303E-04  0.00000000E+00  0.00000000E+00  1.02981278E-04  2.76315191E-05
  3.88434843E-04  0.00000000E+00  0.00000000E+00 -8.55250505E-04 -3.60318179E-04
 -1.60893160E-04  0.00000000E+00  0.00000000E+00  2.48718217E-04  1.99446684E-05
  0.00000000E+00  5.27767590E-05  1.70249515E-05  0.00000000E+00  0.00000000E+00
 -2.19832110E-05 -1.07772293E-05  0.00000000E+00  1.37490355E-04  1.65135421E-06
  0.00000000E+00  0.00000000E+00 -2.03297727E-04 -1.21112206E-04  4.75136464E-04
  2.05143045E-03  1.05891594E-04  1.47594652E-05 -4.07528665E-05 -2.46979007E-04
  0.00000000E+00  1.14495789E-04 -1.27124656E-03  0.00000000E+00  3.19860721E-04
 -3.33816379E-04  0.00000000E+00 -2.47505595E-06  0.00000000E+00  0.00000000E+00
  7.62273838E-05  1.55090942E-05 -1.59582921E-04  0.00000000E+00  0.00000000E+00
 -5.37720716E-04 -2.75923825E-05  9.76829336E-01 -9.16318598E-03  4.34512233E-02
  1.73377800E-04 -1.16379624E-03 -1.56007751E-03  1.43995705E-03  0.00000000E+00
  1.57294692E-03 -1.28225360E-03  0.00000000E+00 -5.64269190E-04 -8.57199295E-04
  0.00000000E+00  5.75832329E-05 -3.95886600E-05  0.00000000E+00  2.91423438E-05
  0.00000000E+00  0.00000000E+00 -1.17627072E-04 -2.73423093E-06  7.56543543E-04
  0.00000000E+00  0.00000000E+00 -2.00856541E-04 -2.34971358E-04 -2.67054423E-04
  0.00000000E+00  0.00000000E+00  1.64966647E-04  1.27076061E-04  0.00000000E+00
 -6.40896107E-05  1.19027565E-06  0.00000000E+00  0.00000000E+00  1.86573469E-05
  1.01320173E-05  0.00000000E+00 -1.25185126E-06  1.22651271E-04  0.00000000E+00
  0.00000000E+00  2.56480610E-04  9.20541860E-05 -4.61834776E-03 -2.09830707E-04