title                                                                   
SP        RMP2-FC                                                     Aug-CC-pVTZ         
Number of atoms                            I                5
Info1-9                                    I   N=           9
          33          24           0           0           0         110
           1           2           1
Full Title                                 C   N=           1
title       
Route                                      C   N=           4
#p SP mp2/aug-cc-pvtz density=current           
Charge                                     I                0
Multiplicity                               I                1
Number of electrons                        I               32
Number of alpha electrons                  I               16
Number of beta electrons                   I               16
Number of basis functions                  I              207
Number of independent functions            I              207
Number of point charges in /Mol/           I                0
Number of translation vectors              I                0
Atomic numbers                             I   N=           5
           1           8           8           7           8
Nuclear charges                            R   N=           5
  1.00000000E+00  8.00000000E+00  8.00000000E+00  7.00000000E+00  8.00000000E+00
Current cartesian coordinates              R   N=          15
  2.98163488E+00  3.16426414E+00  1.10314925E-31  2.78664527E+00  1.34357731E+00
  3.96939848E-32 -5.33458528E-18  1.27147965E+00  2.35827118E-32 -5.17285442E-01
 -1.43625439E+00  4.93463314E-33 -2.70672487E+00 -1.75386738E+00  5.62554381E-32
Number of symbols in /Mol/                 I                0
Force Field                                I                0
Atom Types                                 C   N=           5
                                                            
Int Atom Types                             I   N=           5
           0           0           0           0           0
MM charges                                 R   N=           5
  0.00000000E+00  0.00000000E+00  0.00000000E+00  0.00000000E+00  0.00000000E+00
Integer atomic weights                     I   N=           5
           1          16          16          14          16
Real atomic weights                        R   N=           5
  1.00782504E+00  1.59949146E+01  1.59949146E+01  1.40030740E+01  1.59949146E+01
Atom fragment info                         I   N=           5
           0           0           0           0           0
Atom residue num                           I   N=           5
           0           0           0           0           0
Nuclear spins                              I   N=           5
           1           0           0           2           0
Nuclear ZEff                               R   N=           5
 -1.00000000E+00 -5.60000000E+00 -5.60000000E+00 -4.55000000E+00 -5.60000000E+00
Nuclear ZNuc                               R   N=           5
  1.00000000E+00  8.00000000E+00  8.00000000E+00  7.00000000E+00  8.00000000E+00
Nuclear QMom                               R   N=           5
  0.00000000E+00  0.00000000E+00  0.00000000E+00  2.04400000E+00  0.00000000E+00
Nuclear GFac                               R   N=           5
  2.79284600E+00  0.00000000E+00  0.00000000E+00  4.03761000E-01  0.00000000E+00
MicOpt                                     I   N=           5
          -1          -1          -1          -1          -1
Number of residues                         I                0
Number of secondary structures             I                0
SymInf integers                            I   N=          26
           1           2           1           1           1           1
           1          -1           0           0           0           0
           0           0           0           0           0           0
           0           0           0           0           0           0
           0           0
RotTr to input orientation                 R   N=          12
 -9.94314011E-01 -9.93519709E-17 -1.06487781E-01  1.06487781E-01 -7.16015622E-17
 -9.94314011E-01  9.11623652E-17 -1.00000000E+00  8.17742074E-17  2.62772587E+00
  0.00000000E+00  3.46377985E+00
Number of contracted shells                I               65
Number of primitive shells                 I              119
Pure/Cartesian d shells                    I                0
Pure/Cartesian f shells                    I                0
Highest angular momentum                   I                3
Largest degree of contraction              I                7
Shell types                                I   N=          65
           0           0           0           0           1           1
           1          -2          -2           0           0           0
           0           0           1           1           1           1
          -2          -2          -2          -3          -3           0
           0           0           0           0           1           1
           1           1          -2          -2          -2          -3
          -3           0           0           0           0           0
           1           1           1           1          -2          -2
          -2          -3          -3           0           0           0
           0           0           1           1           1           1
          -2          -2          -2          -3          -3
Number of primitives per shell             I   N=          65
           3           1           1           1           1           1
           1           1           1           7           6           1
           1           1           3           1           1           1
           1           1           1           1           1           7
           6           1           1           1           3           1
           1           1           1           1           1           1
           1           7           6           1           1           1
           3           1           1           1           1           1
           1           1           1           7           6           1
           1           1           3           1           1           1
           1           1           1           1           1
Shell to atom map                          I   N=          65
           1           1           1           1           1           1
           1           1           1           2           2           2
           2           2           2           2           2           2
           2           2           2           2           2           3
           3           3           3           3           3           3
           3           3           3           3           3           3
           3           4           4           4           4           4
           4           4           4           4           4           4
           4           4           4           5           5           5
           5           5           5           5           5           5
           5           5           5           5           5
Primitive exponents                        R   N=         119
  3.38700000E+01  5.09500000E+00  1.15900000E+00  3.25800000E-01  1.02700000E-01
  2.52600000E-02  1.40700000E+00  3.88000000E-01  1.02000000E-01  1.05700000E+00
  2.47000000E-01  1.53300000E+04  2.29900000E+03  5.22400000E+02  1.47300000E+02
  4.75500000E+01  1.67600000E+01  6.20700000E+00  5.22400000E+02  1.47300000E+02
  4.75500000E+01  1.67600000E+01  6.20700000E+00  6.88200000E-01  1.75200000E+00
  2.38400000E-01  7.37600000E-02  3.44600000E+01  7.74900000E+00  2.28000000E+00
  7.15600000E-01  2.14000000E-01  5.97400000E-02  2.31400000E+00  6.45000000E-01
  2.14000000E-01  1.42800000E+00  5.00000000E-01  1.53300000E+04  2.29900000E+03
  5.22400000E+02  1.47300000E+02  4.75500000E+01  1.67600000E+01  6.20700000E+00
  5.22400000E+02  1.47300000E+02  4.75500000E+01  1.67600000E+01  6.20700000E+00
  6.88200000E-01  1.75200000E+00  2.38400000E-01  7.37600000E-02  3.44600000E+01
  7.74900000E+00  2.28000000E+00  7.15600000E-01  2.14000000E-01  5.97400000E-02
  2.31400000E+00  6.45000000E-01  2.14000000E-01  1.42800000E+00  5.00000000E-01
  1.14200000E+04  1.71200000E+03  3.89300000E+02  1.10000000E+02  3.55700000E+01
  1.25400000E+01  4.64400000E+00  3.89300000E+02  1.10000000E+02  3.55700000E+01
  1.25400000E+01  4.64400000E+00  5.11800000E-01  1.29300000E+00  1.78700000E-01
  5.76000000E-02  2.66300000E+01  5.94800000E+00  1.74200000E+00  5.55000000E-01
  1.72500000E-01  4.91000000E-02  1.65400000E+00  4.69000000E-01  1.51000000E-01
  1.09300000E+00  3.64000000E-01  1.53300000E+04  2.29900000E+03  5.22400000E+02
  1.47300000E+02  4.75500000E+01  1.67600000E+01  6.20700000E+00  5.22400000E+02
  1.47300000E+02  4.75500000E+01  1.67600000E+01  6.20700000E+00  6.88200000E-01
  1.75200000E+00  2.38400000E-01  7.37600000E-02  3.44600000E+01  7.74900000E+00
  2.28000000E+00  7.15600000E-01  2.14000000E-01  5.97400000E-02  2.31400000E+00
  6.45000000E-01  2.14000000E-01  1.42800000E+00  5.00000000E-01
Contraction coefficients                   R   N=         119
  2.54948632E-02  1.90362766E-01  8.52162022E-01  1.00000000E+00  1.00000000E+00
  1.00000000E+00  1.00000000E+00  1.00000000E+00  1.00000000E+00  1.00000000E+00
  1.00000000E+00  5.19808943E-04  4.02025621E-03  2.07128267E-02  8.10105536E-02
  2.35962985E-01  4.42653446E-01  3.57064423E-01 -4.42115008E-05 -1.22591041E-03
 -1.05517725E-02 -6.74452633E-02 -1.71198607E-01  1.07329856E+00  1.00000000E+00
  1.00000000E+00  1.00000000E+00  4.11634896E-02  2.57762836E-01  8.02419274E-01
  1.00000000E+00  1.00000000E+00  1.00000000E+00  1.00000000E+00  1.00000000E+00
  1.00000000E+00  1.00000000E+00  1.00000000E+00  5.19808943E-04  4.02025621E-03
  2.07128267E-02  8.10105536E-02  2.35962985E-01  4.42653446E-01  3.57064423E-01
 -4.42115008E-05 -1.22591041E-03 -1.05517725E-02 -6.74452633E-02 -1.71198607E-01
  1.07329856E+00  1.00000000E+00  1.00000000E+00  1.00000000E+00  4.11634896E-02
  2.57762836E-01  8.02419274E-01  1.00000000E+00  1.00000000E+00  1.00000000E+00
  1.00000000E+00  1.00000000E+00  1.00000000E+00  1.00000000E+00  1.00000000E+00
  5.34563860E-04  4.13435660E-03  2.12335358E-02  8.25006224E-02  2.38138871E-01
  4.42551547E-01  3.53757422E-01 -4.89867350E-05 -1.19527323E-03 -1.03490714E-02
 -6.48680190E-02 -1.71552477E-01  1.07289568E+00  1.00000000E+00  1.00000000E+00
  1.00000000E+00  3.98072123E-02  2.49002660E-01  8.10479727E-01  1.00000000E+00
  1.00000000E+00  1.00000000E+00  1.00000000E+00  1.00000000E+00  1.00000000E+00
  1.00000000E+00  1.00000000E+00  5.19808943E-04  4.02025621E-03  2.07128267E-02
  8.10105536E-02  2.35962985E-01  4.42653446E-01  3.57064423E-01 -4.42115008E-05
 -1.22591041E-03 -1.05517725E-02 -6.74452633E-02 -1.71198607E-01  1.07329856E+00
  1.00000000E+00  1.00000000E+00  1.00000000E+00  4.11634896E-02  2.57762836E-01
  8.02419274E-01  1.00000000E+00  1.00000000E+00  1.00000000E+00  1.00000000E+00
  1.00000000E+00  1.00000000E+00  1.00000000E+00  1.00000000E+00
Coordinates of each shell                  R   N=         195
  2.98163488E+00  3.16426414E+00  7.94458703E-32  2.98163488E+00  3.16426414E+00
  7.94458703E-32  2.98163488E+00  3.16426414E+00  7.94458703E-32  2.98163488E+00
  3.16426414E+00  7.94458703E-32  2.98163488E+00  3.16426414E+00  7.94458703E-32
  2.98163488E+00  3.16426414E+00  7.94458703E-32  2.98163488E+00  3.16426414E+00
  7.94458703E-32  2.98163488E+00  3.16426414E+00  7.94458703E-32  2.98163488E+00
  3.16426414E+00  7.94458703E-32  2.78664527E+00  1.34357731E+00  5.44724071E-32
  2.78664527E+00  1.34357731E+00  5.44724071E-32  2.78664527E+00  1.34357731E+00
  5.44724071E-32  2.78664527E+00  1.34357731E+00  5.44724071E-32  2.78664527E+00
  1.34357731E+00  5.44724071E-32  2.78664527E+00  1.34357731E+00  5.44724071E-32
  2.78664527E+00  1.34357731E+00  5.44724071E-32  2.78664527E+00  1.34357731E+00
  5.44724071E-32  2.78664527E+00  1.34357731E+00  5.44724071E-32  2.78664527E+00
  1.34357731E+00  5.44724071E-32  2.78664527E+00  1.34357731E+00  5.44724071E-32
  2.78664527E+00  1.34357731E+00  5.44724071E-32  2.78664527E+00  1.34357731E+00
  5.44724071E-32  2.78664527E+00  1.34357731E+00  5.44724071E-32 -1.04541657E-18
  1.27147965E+00  1.55830847E-32 -1.04541657E-18  1.27147965E+00  1.55830847E-32
 -1.04541657E-18  1.27147965E+00  1.55830847E-32 -1.04541657E-18  1.27147965E+00
  1.55830847E-32 -1.04541657E-18  1.27147965E+00  1.55830847E-32 -1.04541657E-18
  1.27147965E+00  1.55830847E-32 -1.04541657E-18  1.27147965E+00  1.55830847E-32
 -1.04541657E-18  1.27147965E+00  1.55830847E-32 -1.04541657E-18  1.27147965E+00
  1.55830847E-32 -1.04541657E-18  1.27147965E+00  1.55830847E-32 -1.04541657E-18
  1.27147965E+00  1.55830847E-32 -1.04541657E-18  1.27147965E+00  1.55830847E-32
 -1.04541657E-18  1.27147965E+00  1.55830847E-32 -1.04541657E-18  1.27147965E+00
  1.55830847E-32 -5.17285442E-01 -1.43625439E+00 -2.46575471E-32 -5.17285442E-01
 -1.43625439E+00 -2.46575471E-32 -5.17285442E-01 -1.43625439E+00 -2.46575471E-32
 -5.17285442E-01 -1.43625439E+00 -2.46575471E-32 -5.17285442E-01 -1.43625439E+00
 -2.46575471E-32 -5.17285442E-01 -1.43625439E+00 -2.46575471E-32 -5.17285442E-01
 -1.43625439E+00 -2.46575471E-32 -5.17285442E-01 -1.43625439E+00 -2.46575471E-32
 -5.17285442E-01 -1.43625439E+00 -2.46575471E-32 -5.17285442E-01 -1.43625439E+00
 -2.46575471E-32 -5.17285442E-01 -1.43625439E+00 -2.46575471E-32 -5.17285442E-01
 -1.43625439E+00 -2.46575471E-32 -5.17285442E-01 -1.43625439E+00 -2.46575471E-32
 -5.17285442E-01 -1.43625439E+00 -2.46575471E-32 -2.70672487E+00 -1.75386738E+00
 -5.84108718E-32 -2.70672487E+00 -1.75386738E+00 -5.84108718E-32 -2.70672487E+00
 -1.75386738E+00 -5.84108718E-32 -2.70672487E+00 -1.75386738E+00 -5.84108718E-32
 -2.70672487E+00 -1.75386738E+00 -5.84108718E-32 -2.70672487E+00 -1.75386738E+00
 -5.84108718E-32 -2.70672487E+00 -1.75386738E+00 -5.84108718E-32 -2.70672487E+00
 -1.75386738E+00 -5.84108718E-32 -2.70672487E+00 -1.75386738E+00 -5.84108718E-32
 -2.70672487E+00 -1.75386738E+00 -5.84108718E-32 -2.70672487E+00 -1.75386738E+00
 -5.84108718E-32 -2.70672487E+00 -1.75386738E+00 -5.84108718E-32 -2.70672487E+00
 -1.75386738E+00 -5.84108718E-32 -2.70672487E+00 -1.75386738E+00 -5.84108718E-32
Num ILSW                                   I              100
ILSW                                       I   N=         100
           0           0           0           0           2           0
           0           0           0           0           0          -1
           5           0           0           0           0           0
           0           0           0           0           0           0
           1           0           0           0           0           0
           0           0      100000           0          -1           0
           0           0           0           0           0           0
           0           0           0           1           0           0
           0 -2000000000           1           0           0           0
           0           0           4          52           0           0
           0           0           0           0           0           0
           0           0           0           5           0           1
           0           0           0           0           0           0
           0           0           0           0           0           0
           0           0           0           0           0           0
           0           0           0           0           0           0
           0           0           0           0
Num RLSW                                   I               52
RLSW                                       R   N=          52
  1.00000000E+00  1.00000000E+00  1.00000000E+00  1.00000000E+00  1.00000000E+00
  0.00000000E+00  0.00000000E+00  1.00000000E+00  0.00000000E+00  0.00000000E+00
  0.00000000E+00  0.00000000E+00  1.00000000E+00  0.00000000E+00  0.00000000E+00
  0.00000000E+00  0.00000000E+00  1.00000000E+00  0.00000000E+00  0.00000000E+00
  0.00000000E+00  0.00000000E+00  1.00000000E+00  0.00000000E+00  0.00000000E+00
  0.00000000E+00  0.00000000E+00  1.00000000E+00  0.00000000E+00  0.00000000E+00
  0.00000000E+00  0.00000000E+00  1.00000000E+00  0.00000000E+00  0.00000000E+00
  0.00000000E+00  0.00000000E+00  0.00000000E+00  1.00000000E+00  1.00000000E+00
  0.00000000E+00  1.00000000E+00  0.00000000E+00  0.00000000E+00  0.00000000E+00
  0.00000000E+00  0.00000000E+00  0.00000000E+00  0.00000000E+00  0.00000000E+00
  0.00000000E+00  0.00000000E+00
MxBond                                     I                2
NBond                                      I   N=           5
           1           2           2           2           1
IBond                                      I   N=          10
           2           0           1           3           2           4
           3           5           4           0
RBond                                      R   N=          10
  1.00000000E+00  0.00000000E+00  1.00000000E+00  1.00000000E+00  1.00000000E+00
  1.00000000E+00  1.00000000E+00  2.00000000E+00  2.00000000E+00  0.00000000E+00
Virial Ratio                               R      2.002467474236951E+00
SCF Energy                                 R     -2.794998134296181E+02
MP2 Energy                                 R     -2.804465281674352E+02
Total Energy                               R     -2.804465281674352E+02
Post-SCF wavefunction norm                 R      1.121054857137911E+00
RMS Density                                R      3.995899477587546E-09
Job Status                                 I                1
Nuclear derivative order                   I                0
External E-field                           R   N=          35
  0.00000000E+00  0.00000000E+00  0.00000000E+00  0.00000000E+00  0.00000000E+00
  0.00000000E+00  0.00000000E+00  0.00000000E+00  0.00000000E+00  0.00000000E+00
  0.00000000E+00  0.00000000E+00  0.00000000E+00  0.00000000E+00  0.00000000E+00
  0.00000000E+00  0.00000000E+00  0.00000000E+00  0.00000000E+00  0.00000000E+00
  0.00000000E+00  0.00000000E+00  0.00000000E+00  0.00000000E+00  0.00000000E+00
  0.00000000E+00  0.00000000E+00  0.00000000E+00  0.00000000E+00  0.00000000E+00
  0.00000000E+00  0.00000000E+00  0.00000000E+00  0.00000000E+00  0.00000000E+00
IOpCl                                      I                0
IROHF                                      I                0
Alpha Orbital Energies                     R   N=         207
 -2.06920089E+01 -2.06846395E+01 -2.06617121E+01 -1.58132230E+01 -1.62349496E+00
 -1.48788795E+00 -1.25797504E+00 -9.47794142E-01 -7.70731561E-01 -7.57599436E-01
 -7.10064317E-01 -6.79389379E-01 -6.18536152E-01 -5.86555069E-01 -4.88774186E-01
 -4.72936972E-01  2.95859219E-02  7.16493361E-02  8.54043280E-02  1.01617461E-01
  1.32860494E-01  1.33975479E-01  1.43974685E-01  1.54441512E-01  1.78297886E-01
  1.94360537E-01  1.99890136E-01  2.06094149E-01  2.16411119E-01  2.28984411E-01
  2.37215378E-01  2.65915805E-01  2.93275913E-01  3.03712157E-01  3.09999692E-01
  3.42309458E-01  3.48965785E-01  3.86956112E-01  4.21053956E-01  4.31315364E-01
  5.27008968E-01  5.28850252E-01  5.58164994E-01  5.81073799E-01  6.25571561E-01
  6.38433602E-01  6.74577440E-01  6.84678539E-01  7.04741586E-01  7.11730895E-01
  7.23035078E-01  7.29895339E-01  7.44850592E-01  7.90133603E-01  7.91820374E-01
  8.10330547E-01  8.12363503E-01  8.29214918E-01  8.68024850E-01  9.06254948E-01
  9.21599461E-01  9.24617680E-01  9.57387571E-01  9.76474865E-01  9.83310429E-01
  1.01639082E+00  1.05055275E+00  1.05527111E+00  1.08048355E+00  1.11547953E+00
  1.13820568E+00  1.18810156E+00  1.22075387E+00  1.23119551E+00  1.33826831E+00
  1.34919481E+00  1.38600229E+00  1.45283412E+00  1.48813120E+00  1.51032307E+00
  1.53682730E+00  1.56532308E+00  1.57846814E+00  1.61201567E+00  1.66041978E+00
  1.66876146E+00  1.70296601E+00  1.79055710E+00  1.82990565E+00  1.83428713E+00
  1.87629842E+00  1.90837428E+00  1.95585217E+00  1.98971045E+00  2.00783858E+00
  2.07656003E+00  2.11627590E+00  2.13170423E+00  2.14611272E+00  2.22348077E+00
  2.26018137E+00  2.26334033E+00  2.28832813E+00  2.31215330E+00  2.33835454E+00
  2.38839569E+00  2.42109269E+00  2.42558301E+00  2.45264844E+00  2.46313252E+00
  2.47435836E+00  2.49927102E+00  2.58685872E+00  2.59375300E+00  2.61388220E+00
  2.62187697E+00  2.62902508E+00  2.66176891E+00  2.75623559E+00  2.82326281E+00
  2.85008110E+00  2.87430060E+00  2.88383068E+00  2.91757577E+00  2.95311626E+00
  3.01112911E+00  3.06839844E+00  3.12577960E+00  3.18015988E+00  3.22101008E+00
  3.30912477E+00  3.34872877E+00  3.51015823E+00  3.64014795E+00  3.83820138E+00
  3.83959304E+00  4.14514502E+00  4.15654586E+00  4.18058772E+00  4.25515535E+00
  4.34694014E+00  4.38862388E+00  4.44479267E+00  4.52231838E+00  4.65885618E+00
  4.69996910E+00  4.80289076E+00  4.82308633E+00  4.83151832E+00  4.89404110E+00
  5.02168854E+00  5.07674453E+00  5.09913137E+00  5.14490989E+00  5.17831509E+00
  5.23980897E+00  5.27199644E+00  5.30757030E+00  5.32683880E+00  5.35033970E+00
  5.59449855E+00  5.67330741E+00  5.76367235E+00  5.79300872E+00  5.95071667E+00
  6.16450330E+00  6.33517479E+00  6.34042894E+00  6.39916263E+00  6.49532821E+00
  6.50567103E+00  6.61807193E+00  6.68105419E+00  6.70193699E+00  6.75484395E+00
  6.75906444E+00  6.83185549E+00  6.89649165E+00  6.99743248E+00  7.02736122E+00
  7.04089420E+00  7.07622452E+00  7.12204727E+00  7.13711830E+00  7.17556550E+00
  7.21981362E+00  7.23685263E+00  7.30341965E+00  7.32443137E+00  7.34757996E+00
  7.39450186E+00  7.40706596E+00  7.48253899E+00  7.59298392E+00  7.61064035E+00
  7.61699475E+00  7.65835906E+00  7.76937947E+00  7.88208767E+00  8.05957871E+00
  8.28789133E+00  8.38688623E+00  8.54515156E+00  1.33326416E+01  1.43695026E+01
  1.51411379E+01  1.61499142E+01
Alpha MO coefficients                      R   N=       42849
  9.73483324E-05 -6.58263375E-04 -7.66694485E-04 -9.14455458E-06 -2.68133767E-05
 -2.81355691E-05  0.00000000E+00 -4.94630517E-05  8.71813426E-05  0.00000000E+00
  9.15715584E-05  5.32863648E-05  0.00000000E+00  3.58650917E-05  0.00000000E+00
  0.00000000E+00 -4.64419387E-05  2.34467498E-05  6.66682816E-07  0.00000000E+00
  0.00000000E+00 -1.31391069E-04  1.18126644E-04  4.42177694E-03 -3.03461189E-04
  2.93366118E-05  1.40230709E-03  1.72229531E-03  9.66684583E-05  6.23567028E-06
  0.00000000E+00 -5.24742245E-04 -2.31959418E-05  0.00000000E+00 -9.56467936E-04
  8.12202344E-04  0.00000000E+00 -3.76840823E-04  7.33002388E-05  0.00000000E+00
  3.35136923E-05  0.00000000E+00  0.00000000E+00 -6.30318860E-05  6.48594024E-06
 -3.54676597E-04  0.00000000E+00  0.00000000E+00  6.94313502E-04 -4.27061877E-05
 -4.29534246E-04  0.00000000E+00  0.00000000E+00  2.24699928E-04 -2.00913068E-05
  0.00000000E+00  7.40348516E-05  1.20921119E-05  0.00000000E+00  0.00000000E+00
 -1.01353069E-04 -7.01876379E-07  0.00000000E+00  2.53743069E-04 -3.08289458E-05
  0.00000000E+00  0.00000000E+00 -3.57658452E-04  6.84756080E-05  9.76926866E-01
 -9.21217949E-03  4.32844856E-02  2.24573523E-03 -8.06882107E-04  1.43650056E-03
 -1.37254026E-03  0.00000000E+00 -1.35256236E-03  1.40566166E-03  0.00000000E+00
  1.85464771E-04 -1.15578478E-03  0.00000000E+00 -1.09787425E-04 -9.87379297E-06
  0.00000000E+00  5.10527087E-05  0.00000000E+00  0.00000000E+00 -4.35757912E-05
  2.12843452E-05  7.23475940E-04  0.00000000E+00  0.00000000E+00 -1.95361933E-04
 -3.79463626E-04 -3.76405049E-04  0.00000000E+00  0.00000000E+00 -2.87835847E-04
 -3.60013745E-04  0.00000000E+00  4.36723915E-05 -5.04098461E-05  0.00000000E+00
  0.00000000E+00 -3.56846316E-05 -1.39223940E-05  0.00000000E+00  1.21495174E-05
  2.34540743E-05  0.00000000E+00  0.00000000E+00 -2.89104782E-04 -1.35683740E-04
  3.91244500E-05  4.52352907E-05 -2.66558788E-04 -6.81195946E-04 -1.13080964E-04
 -2.86698237E-05 -9.74587323E-05  0.00000000E+00  2.78427333E-04  7.05019735E-04
  0.00000000E+00 -8.44252326E-04 -4.89040089E-04  0.00000000E+00 -1.26204964E-04
 -2.43327673E-05  0.00000000E+00 -1.84090123E-05  0.00000000E+00  0.00000000E+00
 -2.93373788E-05  1.44359789E-05 -3.30565792E-04  0.00000000E+00  0.00000000E+00
 -8.25728945E-04  1.58701191E-04 -4.10763887E-05  0.00000000E+00  0.00000000E+00
  1.02918880E-04 -1.02816007E-04  0.00000000E+00 -2.20055137E-05 -1.20423108E-04
  0.00000000E+00  0.00000000E+00 -6.78077422E-05 -1.37361651E-04  0.00000000E+00
  1.36251324E-06 -1.51666441E-04  0.00000000E+00  0.00000000E+00  2.75847019E-05
 -4.24606506E-04 -2.28489706E-03  1.16652961E-04 -1.11089918E-04 -2.66877582E-04
  1.15234599E-04 -7.47172086E-06 -2.83660740E-05  0.00000000E+00  6.69105867E-05
  1.67488838E-04  0.00000000E+00  2.28242857E-04  2.13731105E-04  0.00000000E+00
  1.21256400E-04  2.40884880E-05  0.00000000E+00 -3.24811503E-06  0.00000000E+00
  0.00000000E+00 -1.77837622E-05  1.11216112E-06  8.32474436E-08  0.00000000E+00
  0.00000000E+00  7.88705352E-05  9.12400733E-05 -1.00855513E-04  0.00000000E+00
  0.00000000E+00  1.67893904E-04  1.64473743E-04  0.00000000E+00  1.57969874E-05
 -3.99570958E-06  0.00000000E+00  0.00000000E+00 -5.21045049E-06 -1.13543352E-05
  0.00000000E+00 -3.35004842E-05  4.59424165E-05  0.00000000E+00  0.00000000E+00
  8.47723580E-05  8.90274200E-05  3.75961063E-05 -9.72347267E-04 -4.82773876E-04
 -9.82485611E-06 -2.18168063E-05  1.69547021E-05  0.00000000E+00  3.10092681E-06
  2.72941921E-04  0.00000000E+00 -4.00028789E-05  1.33279452E-04  0.00000000E+00
  2.54953501E-05  0.00000000E+00  0.00000000E+00  1.39792941E-05  1.06069598E-05
 -2.56591210E-05  0.00000000E+00  0.00000000E+00  1.14270574E-05  3.27415758E-05
  1.13020892E-04  7.90941561E-05 -2.75262431E-05  7.53076259E-04  6.57040344E-04
  1.02590546E-05  1.94367321E-06  0.00000000E+00 -6.96149963E-05  2.25508422E-05
  0.00000000E+00  3.24516940E-04  8.59574373E-04  0.00000000E+00  3.53464287E-07
  7.71850170E-05  0.00000000E+00 -1.87478846E-06  0.00000000E+00  0.00000000E+00
 -4.60290620E-07 -6.85277993E-06 -3.69224692E-05  0.00000000E+00  0.00000000E+00
 -2.06056793E-05  8.45983374E-05 -2.42907256E-05  0.00000000E+00  0.00000000E+00
 -2.66552121E-04 -1.42231205E-04  0.00000000E+00  9.38205152E-06  5.45760520E-06
  0.00000000E+00  0.00000000E+00  1.85806232E-06 -1.86932759E-05  0.00000000E+00
 -4.02156133E-05 -3.56412974E-05  0.00000000E+00  0.00000000E+00 -7.15668364E-05
  1.87340985E-05  2.32392147E-03  4.42058581E-05  7.74259660E-05 -7.65724925E-05
 -4.65308516E-04  6.04570731E-06  1.61362422E-05  0.00000000E+00 -5.79400022E-05
 -5.48934529E-05  0.00000000E+00  2.27533087E-04 -1.69706798E-04  0.00000000E+00
 -1.90035731E-04 -6.15417903E-05  0.00000000E+00 -8.80144605E-06  0.00000000E+00
  0.00000000E+00  2.23534780E-05  1.94009732E-05  3.72617452E-06  0.00000000E+00
  0.00000000E+00 -1.15098428E-04 -4.38278330E-05 -3.63079377E-06  0.00000000E+00
  0.00000000E+00 -2.22631989E-04 -1.89222829E-04  0.00000000E+00  2.59209225E-06
 -6.39760348E-07  0.00000000E+00  0.00000000E+00  1.26704468E-06 -1.35496372E-05
  0.00000000E+00 -4.48078112E-05  4.19992355E-06  0.00000000E+00  0.00000000E+00
 -6.83156288E-05  1.88922986E-04  2.58849208E-04  1.46569400E-03 -7.86143688E-05
 -1.54135071E-03  3.89395130E-04 -1.44940247E-04  1.26306884E-06  0.00000000E+00
 -2.08651151E-03 -3.84005455E-04  0.00000000E+00  1.03033175E-03  7.40276140E-04
  0.00000000E+00 -1.72892696E-04  5.43238734E-05  0.00000000E+00 -1.23436137E-04
  0.00000000E+00  0.00000000E+00  2.44498353E-04  8.98732635E-05 -4.41529215E-04
  0.00000000E+00  0.00000000E+00  8.97431447E-04 -7.90055761E-05  1.30810629E-05
  0.00000000E+00  0.00000000E+00 -3.37712686E-04 -1.18151240E-04  0.00000000E+00
 -1.69138323E-06  1.50821249E-05  0.00000000E+00  0.00000000E+00  1.91777735E-05
  1.35564978E-05  0.00000000E+00  1.66431366E-04 -7.11877171E-05  0.00000000E+00
  0.00000000E+00 -2.40511759E-04  4.38904706E-05  9.76650287E-01 -9.84901571E-03
  4.35667831E-02  4.49292355E-03 -4.46858385E-04  2.15176309E-03  4.63975263E-04
  0.00000000E+00 -2.38843861E-03 -5.82303774E-04  0.00000000E+00  1.14062266E-03
 -1.02992578E-05  0.00000000E+00  5.19405995E-06 -4.22284426E-05  0.00000000E+00
 -2.32204082E-04  0.00000000E+00  0.00000000E+00  1.03379769E-04  2.98091974E-05
  3.90268512E-04  0.00000000E+00  0.00000000E+00 -8.39799003E-04 -4.03902081E-04
 -1.54988260E-04  0.00000000E+00  0.00000000E+00  2.58655233E-04  1.45841975E-05
  0.00000000E+00  5.23402505E-05  1.72021018E-05  0.00000000E+00  0.00000000E+00
 -2.24677741E-05 -1.28053691E-05  0.00000000E+00  1.37992283E-04  8.15972490E-06
  0.00000000E+00  0.00000000E+00 -1.92362707E-04 -1.35186809E-04  4.78715107E-04
  2.10759898E-03  1.51391110E-04  1.68028715E-05 -4.48571265E-05 -2.53276339E-04
  0.00000000E+00  9.31204334E-05 -1.29598452E-03  0.00000000E+00  2.91546622E-04
 -3.50833928E-04  0.00000000E+00 -3.36441540E-06  0.00000000E+00  0.00000000E+00
  7.05470677E-05  1.56895982E-05 -1.61987823E-04  0.00000000E+00  0.00000000E+00
 -5.38708589E-04 -7.54221519E-06  9.76844659E-01 -9.16595603E-03  4.34158780E-02
  3.27673986E-04 -1.03894314E-03 -1.50468235E-03  1.46526538E-03  0.00000000E+00
  1.49334009E-03 -1.32132684E-03  0.00000000E+00 -7.16262279E-04 -8.78346398E-04
  0.00000000E+00  3.86865346E-05 -2.27822416E-05  0.00000000E+00  3.48502573E-05
  0.00000000E+00  0.00000000E+00 -1.26995083E-04 -9.60231883E-08  7.37050137E-04
  0.00000000E+00  0.00000000E+00 -1.57095949E-04 -2.32224066E-04 -2.83812197E-04
  0.00000000E+00  0.00000000E+00  2.18940730E-04  1.24351148E-04  0.00000000E+00
 -6.09147217E-05  3.71184469E-06  0.00000000E+00  0.00000000E+00  1.56061627E-05
  1.13605917E-05  0.00000000E+00  1.38080433E-05  1.21542507E-04  0.00000000E+00
  0.00000000E+00  2.41353747E-04  8.86301725E-05 -4.52084789E-03 -2.36239122E-04