 Entering Gaussian System, Link 0=g16
 Input=hoono_r4_1p158837.gjf
 Output=hoono_r4_1p158837.log
 Initial command:
 /sw/contrib/gaussian/g16/B01/g16/l1.exe "/scr/Gau-18488.inp" -scrdir="/scr/"
 Entering Link 1 = /sw/contrib/gaussian/g16/B01/g16/l1.exe PID=     18489.
  
 Copyright (c) 1988-2017, Gaussian, Inc.  All Rights Reserved.
  
 This is part of the Gaussian(R) 16 program.  It is based on
 the Gaussian(R) 09 system (copyright 2009, Gaussian, Inc.),
 the Gaussian(R) 03 system (copyright 2003, Gaussian, Inc.),
 the Gaussian(R) 98 system (copyright 1998, Gaussian, Inc.),
 the Gaussian(R) 94 system (copyright 1995, Gaussian, Inc.),
 the Gaussian 92(TM) system (copyright 1992, Gaussian, Inc.),
 the Gaussian 90(TM) system (copyright 1990, Gaussian, Inc.),
 the Gaussian 88(TM) system (copyright 1988, Gaussian, Inc.),
 the Gaussian 86(TM) system (copyright 1986, Carnegie Mellon
 University), and the Gaussian 82(TM) system (copyright 1983,
 Carnegie Mellon University). Gaussian is a federally registered
 trademark of Gaussian, Inc.
  
 This software contains proprietary and confidential information,
 including trade secrets, belonging to Gaussian, Inc.
  
 This software is provided under written license and may be
 used, copied, transmitted, or stored only in accord with that
 written license.
  
 The following legend is applicable only to US Government
 contracts under FAR:
  
                    RESTRICTED RIGHTS LEGEND
  
 Use, reproduction and disclosure by the US Government is
 subject to restrictions as set forth in subparagraphs (a)
 and (c) of the Commercial Computer Software - Restricted
 Rights clause in FAR 52.227-19.
  
 Gaussian, Inc.
 340 Quinnipiac St., Bldg. 40, Wallingford CT 06492
  
  
 ---------------------------------------------------------------
 Warning -- This program may not be used in any manner that
 competes with the business of Gaussian, Inc. or will provide
 assistance to any competitor of Gaussian, Inc.  The licensee
 of this program is prohibited from giving any competitor of
 Gaussian, Inc. access to this program.  By using this program,
 the user acknowledges that Gaussian, Inc. is engaged in the
 business of creating and licensing software in the field of
 computational chemistry and represents and warrants to the
 licensee that it is not a competitor of Gaussian, Inc. and that
 it will not use this program in any manner prohibited above.
 ---------------------------------------------------------------
  

 Cite this work as:
 Gaussian 16, Revision B.01,
 M. J. Frisch, G. W. Trucks, H. B. Schlegel, G. E. Scuseria, 
 M. A. Robb, J. R. Cheeseman, G. Scalmani, V. Barone, 
 G. A. Petersson, H. Nakatsuji, X. Li, M. Caricato, A. V. Marenich, 
 J. Bloino, B. G. Janesko, R. Gomperts, B. Mennucci, H. P. Hratchian, 
 J. V. Ortiz, A. F. Izmaylov, J. L. Sonnenberg, D. Williams-Young, 
 F. Ding, F. Lipparini, F. Egidi, J. Goings, B. Peng, A. Petrone, 
 T. Henderson, D. Ranasinghe, V. G. Zakrzewski, J. Gao, N. Rega, 
 G. Zheng, W. Liang, M. Hada, M. Ehara, K. Toyota, R. Fukuda, 
 J. Hasegawa, M. Ishida, T. Nakajima, Y. Honda, O. Kitao, H. Nakai, 
 T. Vreven, K. Throssell, J. A. Montgomery, Jr., J. E. Peralta, 
 F. Ogliaro, M. J. Bearpark, J. J. Heyd, E. N. Brothers, K. N. Kudin, 
 V. N. Staroverov, T. A. Keith, R. Kobayashi, J. Normand, 
 K. Raghavachari, A. P. Rendell, J. C. Burant, S. S. Iyengar, 
 J. Tomasi, M. Cossi, J. M. Millam, M. Klene, C. Adamo, R. Cammi, 
 J. W. Ochterski, R. L. Martin, K. Morokuma, O. Farkas, 
 J. B. Foresman, and D. J. Fox, Gaussian, Inc., Wallingford CT, 2016.
 
 ******************************************
 Gaussian 16:  ES64L-G16RevB.01 20-Dec-2017
                14-Feb-2022 
 ******************************************
 %nproc=28
 Will use up to   28 processors via shared memory.
 %mem=120GB
 %chk=hoono_r4_1p158837.chk
 -------------------------------------
 #p SP mp2/aug-cc-pvtz density=current
 -------------------------------------
 1/30=1,38=1,172=1/1;
 2/12=2,17=6,18=5,40=1/2;
 3/5=16,6=1,7=10,11=9,25=1,30=1,71=1/1,2,3;
 4//1;
 5/5=2,38=5/2;
 8/6=4,10=1/1;
 9/15=1,16=-3/6;
 10/5=1,13=10/2;
 6/7=2,8=2,9=2,10=2,22=-1/1;
 99/5=1,9=1/99;
 Leave Link    1 at Mon Feb 14 22:11:55 2022, MaxMem= 16106127360 cpu:               3.3 elap:               0.1
 (Enter /sw/contrib/gaussian/g16/B01/g16/l101.exe)
 -----
 title
 -----
 Symbolic Z-matrix:
 Charge =  0 Multiplicity = 1
 H
 O                    1    r1
 O                    2    r2       1    a1
 N                    3    r3       2    a2       1    d1       0
 O                    4    r4       3    a3       2    d2       0
       Variables:
  r1                    0.96898                  
  r2                    1.45492                  
  r3                    1.45878                  
  r4                    1.15884                  
  a1                   97.59495                  
  a2                  102.29752                  
  a3                  109.06955                  
  d1                  180.                       
  d2                  180.                       
 
 ITRead=  0  0  0  0  0
 MicOpt= -1 -1 -1 -1 -1
 NAtoms=      5 NQM=        5 NQMF=       0 NMMI=      0 NMMIF=      0
                NMic=       0 NMicF=      0.
                    Isotopes and Nuclear Properties:
 (Nuclear quadrupole moments (NQMom) in fm**2, nuclear magnetic moments (NMagM)
  in nuclear magnetons)

  Atom         1           2           3           4           5
 IAtWgt=           1          16          16          14          16
 AtmWgt=   1.0078250  15.9949146  15.9949146  14.0030740  15.9949146
 NucSpn=           1           0           0           2           0
 AtZEff=  -0.0000000  -0.0000000  -0.0000000  -0.0000000  -0.0000000
 NQMom=    0.0000000   0.0000000   0.0000000   2.0440000   0.0000000
 NMagM=    2.7928460   0.0000000   0.0000000   0.4037610   0.0000000
 AtZNuc=   1.0000000   8.0000000   8.0000000   7.0000000   8.0000000
 Leave Link  101 at Mon Feb 14 22:11:55 2022, MaxMem= 16106127360 cpu:               3.2 elap:               0.1
 (Enter /sw/contrib/gaussian/g16/B01/g16/l202.exe)
                          Input orientation:                          
 ---------------------------------------------------------------------
 Center     Atomic      Atomic             Coordinates (Angstroms)
 Number     Number       Type             X           Y           Z
 ---------------------------------------------------------------------
      1          1           0        0.000000    0.000000    0.000000
      2          8           0        0.000000    0.000000    0.968976
      3          8           0        1.442156    0.000000    1.161271
      4          7           0        1.561752    0.000000    2.615144
      5          8           0        2.684348    0.000000    2.902688
 ---------------------------------------------------------------------
                    Distance matrix (angstroms):
                    1          2          3          4          5
     1  H    0.000000
     2  O    0.968976   0.000000
     3  O    1.851584   1.454919   0.000000
     4  N    3.045989   2.269127   1.458784   0.000000
     5  O    3.953647   3.308318   2.139060   1.158838   0.000000
 Stoichiometry    HNO3
 Framework group  CS[SG(HNO3)]
 Deg. of freedom     7
 Full point group                 CS      NOp   2
 Largest Abelian subgroup         CS      NOp   2
 Largest concise Abelian subgroup C1      NOp   1
                         Standard orientation:                         
 ---------------------------------------------------------------------
 Center     Atomic      Atomic             Coordinates (Angstroms)
 Number     Number       Type             X           Y           Z
 ---------------------------------------------------------------------
      1          1           0        1.553528    1.679993   -0.000000
      2          8           0        1.454267    0.716115   -0.000000
      3          8           0        0.000000    0.672564   -0.000000
      4          7           0       -0.267900   -0.761410    0.000000
      5          8           0       -1.414046   -0.932444    0.000000
 ---------------------------------------------------------------------
 Rotational constants (GHZ):          55.0350153           5.0392099           4.6165055
 Leave Link  202 at Mon Feb 14 22:11:55 2022, MaxMem= 16106127360 cpu:               0.2 elap:               0.0
 (Enter /sw/contrib/gaussian/g16/B01/g16/l301.exe)
 Standard basis: Aug-CC-pVTZ (5D, 7F)
 Ernie: Thresh=  0.10000D-02 Tol=  0.10000D-05 Strict=F.
 Ernie:  12 primitive shells out of 131 were deleted.
 There are   166 symmetry adapted cartesian basis functions of A'  symmetry.
 There are    79 symmetry adapted cartesian basis functions of A"  symmetry.
 There are   136 symmetry adapted basis functions of A'  symmetry.
 There are    71 symmetry adapted basis functions of A"  symmetry.
   207 basis functions,   315 primitive gaussians,   245 cartesian basis functions
    16 alpha electrons       16 beta electrons
       nuclear repulsion energy       117.2357157485 Hartrees.
 IExCor=    0 DFT=F Ex=HF Corr=None ExCW=0 ScaHFX=  1.000000
 ScaDFX=  1.000000  1.000000  1.000000  1.000000 ScalE2=  1.000000  1.000000
 IRadAn=      5 IRanWt=     -1 IRanGd=            0 ICorTp=0 IEmpDi=  4
 NAtoms=    5 NActive=    5 NUniq=    5 SFac= 1.00D+00 NAtFMM=   60 NAOKFM=F Big=F
 Integral buffers will be    131072 words long.
 Raffenetti 1 integral format.
 Two-electron integral symmetry is turned on.
 Leave Link  301 at Mon Feb 14 22:11:55 2022, MaxMem= 16106127360 cpu:               1.5 elap:               0.1
 (Enter /sw/contrib/gaussian/g16/B01/g16/l302.exe)
 NPDir=0 NMtPBC=     1 NCelOv=     1 NCel=       1 NClECP=     1 NCelD=      1
         NCelK=      1 NCelE2=     1 NClLst=     1 CellRange=     0.0.
 One-electron integrals computed using PRISM.
 One-electron integral symmetry used in STVInt
 NBasis=   207 RedAO= T EigKep=  1.79D-04  NBF=   136    71
 NBsUse=   207 1.00D-06 EigRej= -1.00D+00 NBFU=   136    71
 Leave Link  302 at Mon Feb 14 22:11:56 2022, MaxMem= 16106127360 cpu:               6.7 elap:               0.3
 (Enter /sw/contrib/gaussian/g16/B01/g16/l303.exe)
 DipDrv:  MaxL=1.
 Leave Link  303 at Mon Feb 14 22:11:56 2022, MaxMem= 16106127360 cpu:               0.9 elap:               0.1
 (Enter /sw/contrib/gaussian/g16/B01/g16/l401.exe)
 ExpMin= 2.53D-02 ExpMax= 1.53D+04 ExpMxC= 5.22D+02 IAcc=3 IRadAn=         5 AccDes= 0.00D+00
 Harris functional with IExCor=  205 and IRadAn=       5 diagonalized for initial guess.
 HarFok:  IExCor=  205 AccDes= 0.00D+00 IRadAn=         5 IDoV= 1 UseB2=F ITyADJ=14
 ICtDFT=  3500011 ScaDFX=  1.000000  1.000000  1.000000  1.000000
 FoFCou: FMM=F IPFlag=           0 FMFlag=      100000 FMFlg1=           0
         NFxFlg=           0 DoJE=T BraDBF=F KetDBF=T FulRan=T
         wScrn=  0.000000 ICntrl=       500 IOpCl=  0 I1Cent=   200000004 NGrid=           0
         NMat0=    1 NMatS0=      1 NMatT0=    0 NMatD0=    1 NMtDS0=    0 NMtDT0=    0
 Petite list used in FoFCou.
 Harris En= -279.628341443409    
 JPrj=0 DoOrth=F DoCkMO=F.
 Initial guess orbital symmetries:
       Occupied  (A') (A') (A') (A') (A') (A') (A') (A') (A') (A')
                 (A") (A') (A') (A") (A") (A')
       Virtual   (A") (A') (A') (A') (A') (A') (A") (A') (A') (A')
                 (A") (A') (A") (A') (A') (A") (A') (A") (A') (A')
                 (A') (A') (A') (A') (A') (A") (A') (A") (A') (A')
                 (A") (A') (A") (A') (A') (A") (A') (A") (A') (A')
                 (A") (A') (A") (A') (A") (A') (A') (A') (A") (A")
                 (A') (A') (A') (A') (A") (A') (A") (A') (A") (A')
                 (A') (A') (A") (A') (A') (A") (A') (A") (A') (A')
                 (A") (A') (A') (A") (A") (A') (A') (A") (A') (A')
                 (A') (A") (A') (A") (A') (A") (A') (A") (A') (A')
                 (A') (A") (A') (A") (A') (A") (A") (A') (A') (A")
                 (A') (A') (A") (A') (A') (A') (A') (A") (A") (A')
                 (A") (A') (A') (A') (A") (A') (A') (A') (A") (A')
                 (A") (A') (A") (A') (A") (A') (A') (A") (A") (A')
                 (A') (A') (A') (A") (A") (A') (A") (A') (A') (A')
                 (A') (A") (A") (A') (A') (A") (A') (A') (A') (A')
                 (A") (A') (A') (A") (A') (A") (A') (A") (A') (A")
                 (A') (A") (A') (A") (A') (A") (A") (A") (A') (A')
                 (A") (A') (A") (A') (A') (A") (A") (A") (A') (A')
                 (A') (A') (A') (A') (A') (A') (A') (A') (A') (A')
                 (A')
 The electronic state of the initial guess is 1-A'.
 Leave Link  401 at Mon Feb 14 22:11:56 2022, MaxMem= 16106127360 cpu:               7.6 elap:               0.3
 (Enter /sw/contrib/gaussian/g16/B01/g16/l502.exe)
 Keep R1 ints in memory in symmetry-blocked form, NReq=348887737.
 FoFCou: FMM=F IPFlag=           0 FMFlag=           0 FMFlg1=           0
         NFxFlg=           0 DoJE=F BraDBF=F KetDBF=F FulRan=T
         wScrn=  0.000000 ICntrl=       600 IOpCl=  0 I1Cent=           0 NGrid=           0
         NMat0=    1 NMatS0=  21528 NMatT0=    0 NMatD0=    1 NMtDS0=    0 NMtDT0=    0
 Petite list used in FoFCou.
 Closed shell SCF:
 Using DIIS extrapolation, IDIIS=  1040.
 NGot= 16106127360 LenX= 15988850015 LenY= 15988789549
 Requested convergence on RMS density matrix=1.00D-08 within 128 cycles.
 Requested convergence on MAX density matrix=1.00D-06.
 Requested convergence on             energy=1.00D-06.
 No special actions if energy rises.

 Cycle   1  Pass 1  IDiag  1:
 E= -279.374623028315    
 DIIS: error= 2.69D-02 at cycle   1 NSaved=   1.
 NSaved= 1 IEnMin= 1 EnMin= -279.374623028315     IErMin= 1 ErrMin= 2.69D-02
 ErrMax= 2.69D-02  0.00D+00 EMaxC= 1.00D-01 BMatC= 4.36D-01 BMatP= 4.36D-01
 IDIUse=3 WtCom= 7.31D-01 WtEn= 2.69D-01
 Coeff-Com:  0.100D+01
 Coeff-En:   0.100D+01
 Coeff:      0.100D+01
 Gap=     0.517 Goal=   None    Shift=    0.000
 GapD=    0.517 DampG=2.000 DampE=0.500 DampFc=1.0000 IDamp=-1.
 RMSDP=1.60D-03 MaxDP=9.84D-02              OVMax= 1.08D-01

 Cycle   2  Pass 1  IDiag  1:
 E= -279.457563225854     Delta-E=       -0.082940197540 Rises=F Damp=F
 DIIS: error= 1.75D-02 at cycle   2 NSaved=   2.
 NSaved= 2 IEnMin= 2 EnMin= -279.457563225854     IErMin= 2 ErrMin= 1.75D-02
 ErrMax= 1.75D-02  0.00D+00 EMaxC= 1.00D-01 BMatC= 6.72D-02 BMatP= 4.36D-01
 IDIUse=3 WtCom= 8.25D-01 WtEn= 1.75D-01
 Coeff-Com:  0.186D+00 0.814D+00
 Coeff-En:   0.000D+00 0.100D+01
 Coeff:      0.153D+00 0.847D+00
 Gap=     0.524 Goal=   None    Shift=    0.000
 RMSDP=8.76D-04 MaxDP=3.64D-02 DE=-8.29D-02 OVMax= 6.74D-02

 Cycle   3  Pass 1  IDiag  1:
 E= -279.484628738950     Delta-E=       -0.027065513096 Rises=F Damp=F
 DIIS: error= 1.01D-02 at cycle   3 NSaved=   3.
 NSaved= 3 IEnMin= 3 EnMin= -279.484628738950     IErMin= 3 ErrMin= 1.01D-02
 ErrMax= 1.01D-02  0.00D+00 EMaxC= 1.00D-01 BMatC= 2.70D-02 BMatP= 6.72D-02
 IDIUse=3 WtCom= 8.99D-01 WtEn= 1.01D-01
 Coeff-Com: -0.326D-01 0.379D+00 0.654D+00
 Coeff-En:   0.000D+00 0.239D+00 0.761D+00
 Coeff:     -0.293D-01 0.365D+00 0.665D+00
 Gap=     0.508 Goal=   None    Shift=    0.000
 RMSDP=3.65D-04 MaxDP=1.47D-02 DE=-2.71D-02 OVMax= 3.62D-02

 Cycle   4  Pass 1  IDiag  1:
 E= -279.502462001372     Delta-E=       -0.017833262421 Rises=F Damp=F
 DIIS: error= 1.27D-03 at cycle   4 NSaved=   4.
 NSaved= 4 IEnMin= 4 EnMin= -279.502462001372     IErMin= 4 ErrMin= 1.27D-03
 ErrMax= 1.27D-03  0.00D+00 EMaxC= 1.00D-01 BMatC= 4.79D-04 BMatP= 2.70D-02
 IDIUse=3 WtCom= 9.87D-01 WtEn= 1.27D-02
 Coeff-Com: -0.116D-01 0.599D-01 0.162D+00 0.789D+00
 Coeff-En:   0.000D+00 0.000D+00 0.000D+00 0.100D+01
 Coeff:     -0.115D-01 0.591D-01 0.160D+00 0.792D+00
 Gap=     0.500 Goal=   None    Shift=    0.000
 RMSDP=8.83D-05 MaxDP=2.75D-03 DE=-1.78D-02 OVMax= 1.09D-02

 Cycle   5  Pass 1  IDiag  1:
 E= -279.503106740647     Delta-E=       -0.000644739275 Rises=F Damp=F
 DIIS: error= 7.25D-04 at cycle   5 NSaved=   5.
 NSaved= 5 IEnMin= 5 EnMin= -279.503106740647     IErMin= 5 ErrMin= 7.25D-04
 ErrMax= 7.25D-04  0.00D+00 EMaxC= 1.00D-01 BMatC= 8.39D-05 BMatP= 4.79D-04
 IDIUse=3 WtCom= 9.93D-01 WtEn= 7.25D-03
 Coeff-Com:  0.598D-02-0.719D-01-0.117D+00 0.222D-01 0.116D+01
 Coeff-En:   0.000D+00 0.000D+00 0.000D+00 0.000D+00 0.100D+01
 Coeff:      0.594D-02-0.714D-01-0.116D+00 0.221D-01 0.116D+01
 Gap=     0.500 Goal=   None    Shift=    0.000
 RMSDP=7.43D-05 MaxDP=2.04D-03 DE=-6.45D-04 OVMax= 1.07D-02

 Cycle   6  Pass 1  IDiag  1:
 E= -279.503406511468     Delta-E=       -0.000299770821 Rises=F Damp=F
 DIIS: error= 2.73D-04 at cycle   6 NSaved=   6.
 NSaved= 6 IEnMin= 6 EnMin= -279.503406511468     IErMin= 6 ErrMin= 2.73D-04
 ErrMax= 2.73D-04  0.00D+00 EMaxC= 1.00D-01 BMatC= 1.60D-05 BMatP= 8.39D-05
 IDIUse=3 WtCom= 9.97D-01 WtEn= 2.73D-03
 Coeff-Com:  0.799D-03-0.101D-02-0.334D-03-0.127D+00-0.196D+00 0.132D+01
 Coeff-En:   0.000D+00 0.000D+00 0.000D+00 0.000D+00 0.000D+00 0.100D+01
 Coeff:      0.796D-03-0.101D-02-0.333D-03-0.126D+00-0.195D+00 0.132D+01
 Gap=     0.500 Goal=   None    Shift=    0.000
 RMSDP=4.37D-05 MaxDP=1.20D-03 DE=-3.00D-04 OVMax= 5.28D-03

 Cycle   7  Pass 1  IDiag  1:
 E= -279.503475131972     Delta-E=       -0.000068620504 Rises=F Damp=F
 DIIS: error= 1.21D-04 at cycle   7 NSaved=   7.
 NSaved= 7 IEnMin= 7 EnMin= -279.503475131972     IErMin= 7 ErrMin= 1.21D-04
 ErrMax= 1.21D-04  0.00D+00 EMaxC= 1.00D-01 BMatC= 4.73D-06 BMatP= 1.60D-05
 IDIUse=3 WtCom= 9.99D-01 WtEn= 1.21D-03
 Coeff-Com: -0.905D-03 0.136D-01 0.264D-01-0.266D-01-0.297D+00 0.419D+00
 Coeff-Com:  0.865D+00
 Coeff-En:   0.000D+00 0.000D+00 0.000D+00 0.000D+00 0.000D+00 0.000D+00
 Coeff-En:   0.100D+01
 Coeff:     -0.904D-03 0.136D-01 0.264D-01-0.266D-01-0.297D+00 0.419D+00
 Coeff:      0.865D+00
 Gap=     0.500 Goal=   None    Shift=    0.000
 RMSDP=1.34D-05 MaxDP=3.77D-04 DE=-6.86D-05 OVMax= 1.53D-03

 Cycle   8  Pass 1  IDiag  1:
 E= -279.503484169980     Delta-E=       -0.000009038008 Rises=F Damp=F
 DIIS: error= 5.32D-05 at cycle   8 NSaved=   8.
 NSaved= 8 IEnMin= 8 EnMin= -279.503484169980     IErMin= 8 ErrMin= 5.32D-05
 ErrMax= 5.32D-05  0.00D+00 EMaxC= 1.00D-01 BMatC= 5.60D-07 BMatP= 4.73D-06
 IDIUse=1 WtCom= 1.00D+00 WtEn= 0.00D+00
 Coeff-Com: -0.452D-03 0.365D-02 0.795D-02 0.268D-01-0.451D-01-0.184D+00
 Coeff-Com:  0.128D+00 0.106D+01
 Coeff:     -0.452D-03 0.365D-02 0.795D-02 0.268D-01-0.451D-01-0.184D+00
 Coeff:      0.128D+00 0.106D+01
 Gap=     0.500 Goal=   None    Shift=    0.000
 RMSDP=6.88D-06 MaxDP=1.97D-04 DE=-9.04D-06 OVMax= 7.50D-04

 Cycle   9  Pass 1  IDiag  1:
 E= -279.503485860850     Delta-E=       -0.000001690870 Rises=F Damp=F
 DIIS: error= 1.43D-05 at cycle   9 NSaved=   9.
 NSaved= 9 IEnMin= 9 EnMin= -279.503485860850     IErMin= 9 ErrMin= 1.43D-05
 ErrMax= 1.43D-05  0.00D+00 EMaxC= 1.00D-01 BMatC= 5.96D-08 BMatP= 5.60D-07
 IDIUse=1 WtCom= 1.00D+00 WtEn= 0.00D+00
 Coeff-Com:  0.109D-03-0.162D-02-0.290D-02-0.136D-02 0.325D-01-0.371D-02
 Coeff-Com: -0.147D+00-0.100D+00 0.122D+01
 Coeff:      0.109D-03-0.162D-02-0.290D-02-0.136D-02 0.325D-01-0.371D-02
 Coeff:     -0.147D+00-0.100D+00 0.122D+01
 Gap=     0.500 Goal=   None    Shift=    0.000
 RMSDP=1.79D-06 MaxDP=5.94D-05 DE=-1.69D-06 OVMax= 1.56D-04

 Cycle  10  Pass 1  IDiag  1:
 E= -279.503485996085     Delta-E=       -0.000000135235 Rises=F Damp=F
 DIIS: error= 3.83D-06 at cycle  10 NSaved=  10.
 NSaved=10 IEnMin=10 EnMin= -279.503485996085     IErMin=10 ErrMin= 3.83D-06
 ErrMax= 3.83D-06  0.00D+00 EMaxC= 1.00D-01 BMatC= 4.70D-09 BMatP= 5.96D-08
 IDIUse=1 WtCom= 1.00D+00 WtEn= 0.00D+00
 Coeff-Com:  0.343D-04-0.297D-03-0.441D-03-0.260D-02 0.276D-02 0.187D-01
 Coeff-Com: -0.137D-01-0.811D-01-0.467D-01 0.112D+01
 Coeff:      0.343D-04-0.297D-03-0.441D-03-0.260D-02 0.276D-02 0.187D-01
 Coeff:     -0.137D-01-0.811D-01-0.467D-01 0.112D+01
 Gap=     0.500 Goal=   None    Shift=    0.000
 RMSDP=4.63D-07 MaxDP=1.88D-05 DE=-1.35D-07 OVMax= 3.61D-05

 Cycle  11  Pass 1  IDiag  1:
 E= -279.503486006169     Delta-E=       -0.000000010084 Rises=F Damp=F
 DIIS: error= 1.77D-06 at cycle  11 NSaved=  11.
 NSaved=11 IEnMin=11 EnMin= -279.503486006169     IErMin=11 ErrMin= 1.77D-06
 ErrMax= 1.77D-06  0.00D+00 EMaxC= 1.00D-01 BMatC= 5.25D-10 BMatP= 4.70D-09
 IDIUse=1 WtCom= 1.00D+00 WtEn= 0.00D+00
 Coeff-Com: -0.191D-04 0.225D-03 0.454D-03 0.454D-03-0.402D-02-0.289D-02
 Coeff-Com:  0.172D-01 0.306D-01-0.129D+00-0.180D+00 0.127D+01
 Coeff:     -0.191D-04 0.225D-03 0.454D-03 0.454D-03-0.402D-02-0.289D-02
 Coeff:      0.172D-01 0.306D-01-0.129D+00-0.180D+00 0.127D+01
 Gap=     0.500 Goal=   None    Shift=    0.000
 RMSDP=1.55D-07 MaxDP=5.66D-06 DE=-1.01D-08 OVMax= 1.55D-05

 Cycle  12  Pass 1  IDiag  1:
 E= -279.503486007543     Delta-E=       -0.000000001374 Rises=F Damp=F
 DIIS: error= 5.35D-07 at cycle  12 NSaved=  12.
 NSaved=12 IEnMin=12 EnMin= -279.503486007543     IErMin=12 ErrMin= 5.35D-07
 ErrMax= 5.35D-07  0.00D+00 EMaxC= 1.00D-01 BMatC= 5.69D-11 BMatP= 5.25D-10
 IDIUse=1 WtCom= 1.00D+00 WtEn= 0.00D+00
 Coeff-Com:  0.884D-06-0.240D-04-0.532D-04 0.156D-03 0.948D-03-0.201D-02
 Coeff-Com: -0.369D-02 0.504D-02 0.383D-01-0.978D-01-0.312D+00 0.137D+01
 Coeff:      0.884D-06-0.240D-04-0.532D-04 0.156D-03 0.948D-03-0.201D-02
 Coeff:     -0.369D-02 0.504D-02 0.383D-01-0.978D-01-0.312D+00 0.137D+01
 Gap=     0.500 Goal=   None    Shift=    0.000
 RMSDP=6.25D-08 MaxDP=2.47D-06 DE=-1.37D-09 OVMax= 6.05D-06

 Cycle  13  Pass 1  IDiag  1:
 E= -279.503486007722     Delta-E=       -0.000000000179 Rises=F Damp=F
 DIIS: error= 1.48D-07 at cycle  13 NSaved=  13.
 NSaved=13 IEnMin=13 EnMin= -279.503486007722     IErMin=13 ErrMin= 1.48D-07
 ErrMax= 1.48D-07  0.00D+00 EMaxC= 1.00D-01 BMatC= 3.23D-12 BMatP= 5.69D-11
 IDIUse=1 WtCom= 1.00D+00 WtEn= 0.00D+00
 Coeff-Com:  0.120D-05-0.133D-04-0.217D-04-0.780D-04 0.122D-03 0.668D-03
 Coeff-Com: -0.612D-03-0.322D-02 0.357D-03 0.382D-01-0.240D-01-0.345D+00
 Coeff-Com:  0.133D+01
 Coeff:      0.120D-05-0.133D-04-0.217D-04-0.780D-04 0.122D-03 0.668D-03
 Coeff:     -0.612D-03-0.322D-02 0.357D-03 0.382D-01-0.240D-01-0.345D+00
 Coeff:      0.133D+01
 Gap=     0.500 Goal=   None    Shift=    0.000
 RMSDP=1.72D-08 MaxDP=5.01D-07 DE=-1.79D-10 OVMax= 1.45D-06

 Cycle  14  Pass 1  IDiag  1:
 E= -279.503486007732     Delta-E=       -0.000000000010 Rises=F Damp=F
 DIIS: error= 2.21D-08 at cycle  14 NSaved=  14.
 NSaved=14 IEnMin=14 EnMin= -279.503486007732     IErMin=14 ErrMin= 2.21D-08
 ErrMax= 2.21D-08  0.00D+00 EMaxC= 1.00D-01 BMatC= 1.57D-13 BMatP= 3.23D-12
 IDIUse=1 WtCom= 1.00D+00 WtEn= 0.00D+00
 Coeff-Com: -0.180D-06 0.296D-05 0.540D-05 0.463D-05-0.779D-04 0.378D-04
 Coeff-Com:  0.251D-03 0.246D-03-0.232D-02 0.898D-03 0.180D-01-0.249D-01
 Coeff-Com: -0.207D+00 0.122D+01
 Coeff:     -0.180D-06 0.296D-05 0.540D-05 0.463D-05-0.779D-04 0.378D-04
 Coeff:      0.251D-03 0.246D-03-0.232D-02 0.898D-03 0.180D-01-0.249D-01
 Coeff:     -0.207D+00 0.122D+01
 Gap=     0.500 Goal=   None    Shift=    0.000
 RMSDP=3.48D-09 MaxDP=8.33D-08 DE=-1.01D-11 OVMax= 3.15D-07

 SCF Done:  E(RHF) =  -279.503486008     A.U. after   14 cycles
            NFock= 14  Conv=0.35D-08     -V/T= 2.0021
 KE= 2.789049663337D+02 PE=-8.958448424857D+02 EE= 2.202006743958D+02
 Leave Link  502 at Mon Feb 14 22:12:00 2022, MaxMem= 16106127360 cpu:              57.7 elap:               3.6
 (Enter /sw/contrib/gaussian/g16/B01/g16/l801.exe)
 ExpMin= 2.53D-02 ExpMax= 1.53D+04 ExpMxC= 5.22D+02 IAcc=3 IRadAn=         5 AccDes= 0.00D+00
 HarFok:  IExCor=  205 AccDes= 0.00D+00 IRadAn=         5 IDoV=-2 UseB2=F ITyADJ=14
 ICtDFT= 12500011 ScaDFX=  1.000000  1.000000  1.000000  1.000000
 Largest valence mixing into a core orbital is  2.07D-04
 Largest core mixing into a valence orbital is  3.59D-05
 Range of M.O.s used for correlation:     5   207
 NBasis=   207 NAE=    16 NBE=    16 NFC=     4 NFV=     0
 NROrb=    203 NOA=    12 NOB=    12 NVA=   191 NVB=   191

 **** Warning!!: The largest alpha MO coefficient is  0.17649393D+02

 Leave Link  801 at Mon Feb 14 22:12:00 2022, MaxMem= 16106127360 cpu:               2.9 elap:               0.2
 (Enter /sw/contrib/gaussian/g16/B01/g16/l906.exe)
 Frozen-core derivative calculation, NFC=   4 NFV=   0.
 FulOut=F Deriv=T AODrv=F NAtomX=     5
   MMem=          76  MDisk=          12 MDiskD=          12
  W3Min=      811440 MinDsk=     1524655 NBas6D=         245
 NBas2D=       30762    NTT=       30135    LW2=     3500000
    MDV= 16105579885 MDiskM=      328644 NBas2p=       30466
 Fully in-core method, ICMem=   960157634.
 IMap=   1   2   3   4   5   6   7   8   9  10  11  12  13  14  15  16
 JobTyp=1 Pass  1 fully in-core, NPsUse= 28.
 Compute canonical integrals.
 FoFCou: FMM=F IPFlag=           0 FMFlag=           0 FMFlg1=           0
         NFxFlg=           0 DoJE=F BraDBF=F KetDBF=F FulRan=T
         wScrn=  0.000000 ICntrl=       600 IOpCl=  1 I1Cent=           0 NGrid=           0
         NMat0=    1 NMatS0=  30762 NMatT0=    0 NMatD0=    1 NMtDS0=    0 NMtDT0=    0
 Symmetry not used in FoFCou.
 Spin components of T(2) and E(2):
     alpha-alpha T2 =       0.3378201105D-01 E2=     -0.1221507801D+00
     alpha-beta  T2 =       0.1854903188D+00 E2=     -0.6987269393D+00
     beta-beta   T2 =       0.3378201105D-01 E2=     -0.1221507801D+00
 The integrals were generated   1 times.
 ANorm=    0.1119399098D+01
 E2 =    -0.9430284995D+00 EUMP2 =    -0.28044651450720D+03
 Leave Link  906 at Mon Feb 14 22:12:09 2022, MaxMem= 16106127360 cpu:             244.5 elap:               8.8
 (Enter /sw/contrib/gaussian/g16/B01/g16/l1002.exe)
 Minotr:  Closed shell wavefunction.
          Computing MP2/KS-MP2 derivatives.
          Using Z-Vector for PSCF gradient.
          Skipping F1 and S1 gradient terms here.
          Frozen-core window.
          Direct CPHF calculation.
          Differentiating once with respect to electric field.
                with respect to dipole field.
          Electric field/nuclear overlap derivatives assumed to be zero.
          Using symmetry in CPHF.
          Requested convergence is 1.0D-10 RMS, and 1.0D-09 maximum.
          NewPWx=F KeepS1=T KeepF1=T KeepIn=T MapXYZ=F SortEE=F KeepMc=T.
 Keep R1 ints in memory in symmetry-blocked form, NReq=348888868.
 FoFCou: FMM=F IPFlag=           0 FMFlag=           0 FMFlg1=           0
         NFxFlg=           0 DoJE=F BraDBF=F KetDBF=F FulRan=T
         wScrn=  0.000000 ICntrl=       600 IOpCl=  0 I1Cent=           0 NGrid=           0
         NMat0=    1 NMatS0=  21528 NMatT0=    0 NMatD0=    1 NMtDS0=    0 NMtDT0=    0
 Petite list used in FoFCou.
          MDV=   16106127360 using IRadAn=       5.
          Solving linear equations separately, MaxMat=       0.
          There are     1 degrees of freedom in the 1st order CPHF.  IDoFFX=0 NUNeed=     1.
 LinEq1:  Iter=  0 NonCon=     1 RMS=5.89D-03 Max=1.28D-01 NDo=     1
 AX will form     1 AO Fock derivatives at one time.
 LinEq1:  Iter=  1 NonCon=     1 RMS=1.86D-03 Max=3.66D-02 NDo=     1
 LinEq1:  Iter=  2 NonCon=     1 RMS=8.45D-04 Max=1.37D-02 NDo=     1
 LinEq1:  Iter=  3 NonCon=     1 RMS=3.72D-04 Max=7.25D-03 NDo=     1
 LinEq1:  Iter=  4 NonCon=     1 RMS=1.15D-04 Max=1.82D-03 NDo=     1
 LinEq1:  Iter=  5 NonCon=     1 RMS=4.17D-05 Max=6.55D-04 NDo=     1
 LinEq1:  Iter=  6 NonCon=     1 RMS=1.87D-05 Max=2.24D-04 NDo=     1
 LinEq1:  Iter=  7 NonCon=     1 RMS=7.48D-06 Max=1.53D-04 NDo=     1
 LinEq1:  Iter=  8 NonCon=     1 RMS=3.20D-06 Max=3.20D-05 NDo=     1
 LinEq1:  Iter=  9 NonCon=     1 RMS=8.76D-07 Max=1.26D-05 NDo=     1
 LinEq1:  Iter= 10 NonCon=     1 RMS=1.73D-07 Max=1.86D-06 NDo=     1
 LinEq1:  Iter= 11 NonCon=     1 RMS=3.24D-08 Max=3.33D-07 NDo=     1
 LinEq1:  Iter= 12 NonCon=     1 RMS=7.75D-09 Max=1.21D-07 NDo=     1
 LinEq1:  Iter= 13 NonCon=     1 RMS=1.39D-09 Max=2.43D-08 NDo=     1
 LinEq1:  Iter= 14 NonCon=     1 RMS=2.53D-10 Max=3.55D-09 NDo=     1
 LinEq1:  Iter= 15 NonCon=     0 RMS=4.69D-11 Max=5.43D-10 NDo=     1
 Linear equations converged to 1.000D-10 1.000D-09 after    15 iterations.
 End of Minotr F.D. properties file   721 does not exist.
 End of Minotr F.D. properties file   722 does not exist.
 End of Minotr F.D. properties file   788 does not exist.
 Leave Link 1002 at Mon Feb 14 22:12:13 2022, MaxMem= 16106127360 cpu:              55.8 elap:               4.0
 (Enter /sw/contrib/gaussian/g16/B01/g16/l601.exe)
 Copying SCF densities to generalized density rwf, IOpCl= 0 IROHF=0.

 **********************************************************************

            Population analysis using the MP2 Density.

 **********************************************************************

 Orbital symmetries:
       Occupied  (A') (A') (A') (A') (A') (A') (A') (A') (A') (A')
                 (A") (A') (A") (A') (A") (A')
       Virtual   (A') (A") (A') (A') (A") (A') (A') (A') (A") (A')
                 (A") (A') (A') (A') (A") (A') (A') (A") (A') (A')
                 (A') (A') (A') (A') (A") (A') (A') (A") (A') (A')
                 (A") (A') (A") (A') (A') (A") (A') (A') (A") (A')
                 (A") (A') (A") (A') (A') (A") (A') (A') (A") (A')
                 (A") (A') (A') (A') (A") (A') (A") (A') (A") (A')
                 (A') (A') (A") (A') (A') (A") (A') (A") (A') (A')
                 (A") (A') (A') (A") (A") (A') (A') (A") (A') (A')
                 (A') (A") (A') (A") (A") (A') (A') (A") (A') (A')
                 (A") (A') (A') (A") (A') (A") (A') (A") (A') (A')
                 (A") (A') (A") (A') (A') (A") (A') (A') (A") (A')
                 (A") (A') (A') (A') (A") (A') (A') (A') (A") (A')
                 (A") (A') (A") (A') (A') (A") (A") (A') (A") (A')
                 (A') (A') (A') (A") (A") (A") (A') (A') (A') (A')
                 (A") (A') (A") (A') (A') (A") (A') (A') (A') (A')
                 (A") (A') (A') (A") (A') (A") (A') (A") (A') (A")
                 (A') (A") (A') (A") (A') (A") (A") (A') (A") (A')
                 (A") (A') (A") (A') (A") (A') (A") (A") (A') (A')
                 (A') (A') (A') (A') (A') (A') (A') (A') (A') (A')
                 (A')
 The electronic state is 1-A'.
 Alpha  occ. eigenvalues --  -20.68806 -20.68480 -20.65845 -15.81110  -1.63392
 Alpha  occ. eigenvalues --   -1.49578  -1.25320  -0.94646  -0.77428  -0.76236
 Alpha  occ. eigenvalues --   -0.71443  -0.68072  -0.62274  -0.58862  -0.48419
 Alpha  occ. eigenvalues --   -0.47015
 Alpha virt. eigenvalues --    0.02995   0.07535   0.08574   0.10172   0.13373
 Alpha virt. eigenvalues --    0.13411   0.14434   0.15482   0.17848   0.19403
 Alpha virt. eigenvalues --    0.20026   0.20638   0.22120   0.23645   0.23747
 Alpha virt. eigenvalues --    0.26619   0.29465   0.30436   0.31102   0.34330
 Alpha virt. eigenvalues --    0.35015   0.38768   0.42257   0.43182   0.52709
 Alpha virt. eigenvalues --    0.53076   0.55912   0.58190   0.63215   0.63797
 Alpha virt. eigenvalues --    0.67078   0.68544   0.70652   0.71148   0.72453
 Alpha virt. eigenvalues --    0.73013   0.74466   0.79220   0.79281   0.80994
 Alpha virt. eigenvalues --    0.81381   0.83379   0.86923   0.90941   0.92306
 Alpha virt. eigenvalues --    0.92742   0.95726   0.98008   0.98567   1.01706
 Alpha virt. eigenvalues --    1.05279   1.05597   1.08497   1.11934   1.14235
 Alpha virt. eigenvalues --    1.19025   1.22248   1.23446   1.33975   1.35124
 Alpha virt. eigenvalues --    1.38818   1.45414   1.48840   1.51050   1.53834
 Alpha virt. eigenvalues --    1.56689   1.57948   1.61416   1.66684   1.67041
 Alpha virt. eigenvalues --    1.70287   1.79376   1.83022   1.83511   1.88155
 Alpha virt. eigenvalues --    1.90964   1.95302   1.99531   2.00584   2.07843
 Alpha virt. eigenvalues --    2.12136   2.13324   2.15124   2.22508   2.26540
 Alpha virt. eigenvalues --    2.26597   2.29069   2.31579   2.34789   2.38723
 Alpha virt. eigenvalues --    2.42718   2.43171   2.45456   2.46442   2.47865
 Alpha virt. eigenvalues --    2.50355   2.59120   2.59919   2.62321   2.62948
 Alpha virt. eigenvalues --    2.63629   2.67141   2.76220   2.83013   2.86020
 Alpha virt. eigenvalues --    2.89005   2.89758   2.92885   2.96112   3.02788
 Alpha virt. eigenvalues --    3.06626   3.12575   3.20577   3.22995   3.31904
 Alpha virt. eigenvalues --    3.34364   3.52222   3.64443   3.83997   3.84805
 Alpha virt. eigenvalues --    4.15023   4.16486   4.18577   4.28619   4.35318
 Alpha virt. eigenvalues --    4.39518   4.46656   4.52186   4.67676   4.71289
 Alpha virt. eigenvalues --    4.81080   4.82730   4.83242   4.89521   5.02138
 Alpha virt. eigenvalues --    5.07864   5.10817   5.13831   5.18265   5.24693
 Alpha virt. eigenvalues --    5.27320   5.30669   5.33163   5.36788   5.60853
 Alpha virt. eigenvalues --    5.69372   5.78147   5.83448   5.95450   6.17185
 Alpha virt. eigenvalues --    6.31109   6.33960   6.39622   6.49363   6.50563
 Alpha virt. eigenvalues --    6.61555   6.66962   6.70453   6.75976   6.76562
 Alpha virt. eigenvalues --    6.84004   6.90273   7.01760   7.05921   7.06008
 Alpha virt. eigenvalues --    7.09197   7.13055   7.15301   7.18336   7.23391
 Alpha virt. eigenvalues --    7.24436   7.31306   7.34687   7.35655   7.41300
 Alpha virt. eigenvalues --    7.43364   7.48615   7.61066   7.63476   7.64504
 Alpha virt. eigenvalues --    7.66980   7.79955   7.90676   8.09849   8.31971
 Alpha virt. eigenvalues --    8.41073   8.54726  13.41245  14.48841  15.16739
 Alpha virt. eigenvalues --   16.52644
          Condensed to atoms (all electrons):
               1          2          3          4          5
     1  H    0.589846   0.128396   0.020041   0.012517  -0.000652
     2  O    0.128396   8.322949  -0.173867  -0.090462   0.015544
     3  O    0.020041  -0.173867   8.479982  -0.134974  -0.041363
     4  N    0.012517  -0.090462  -0.134974   6.976589  -0.056587
     5  O   -0.000652   0.015544  -0.041363  -0.056587   8.273445
 Mulliken charges:
               1
     1  H    0.249852
     2  O   -0.202561
     3  O   -0.149820
     4  N    0.292916
     5  O   -0.190388
 Sum of Mulliken charges =  -0.00000
 Mulliken charges with hydrogens summed into heavy atoms:
               1
     2  O    0.047291
     3  O   -0.149820
     4  N    0.292916
     5  O   -0.190388
 Electronic spatial extent (au):  <R**2>=            251.7863
 Charge=              0.0000 electrons
 Dipole moment (field-independent basis, Debye):
    X=              0.4624    Y=              1.3078    Z=             -0.0000  Tot=              1.3871
 Quadrupole moment (field-independent basis, Debye-Ang):
   XX=            -22.4051   YY=            -18.6158   ZZ=            -21.9906
   XY=              3.2968   XZ=              0.0000   YZ=              0.0000
 Traceless Quadrupole moment (field-independent basis, Debye-Ang):
   XX=             -1.4013   YY=              2.3880   ZZ=             -0.9867
   XY=              3.2968   XZ=              0.0000   YZ=              0.0000
 Octapole moment (field-independent basis, Debye-Ang**2):
  XXX=              2.7645  YYY=             11.0046  ZZZ=              0.0000  XYY=              7.8000
  XXY=              6.5378  XXZ=             -0.0000  XZZ=             -1.6183  YZZ=             -0.8943
  YYZ=             -0.0000  XYZ=             -0.0000
 Hexadecapole moment (field-independent basis, Debye-Ang**3):
 XXXX=           -157.9721 YYYY=            -88.9412 ZZZZ=            -18.2235 XXXY=            -36.2387
 XXXZ=              0.0000 YYYX=            -30.3729 YYYZ=              0.0000 ZZZX=              0.0000
 ZZZY=              0.0000 XXYY=            -33.7143 XXZZ=            -30.7999 YYZZ=            -20.4958
 XXYZ=              0.0000 YYXZ=              0.0000 ZZXY=            -14.9134
 N-N= 1.172357157485D+02 E-N=-8.966140036241D+02  KE= 2.802492168191D+02
 Symmetry A'   KE= 2.662726273392D+02
 Symmetry A"   KE= 1.397658947996D+01
 No NMR shielding tensors so no spin-rotation constants.
 Leave Link  601 at Mon Feb 14 22:12:13 2022, MaxMem= 16106127360 cpu:               7.2 elap:               0.3
 (Enter /sw/contrib/gaussian/g16/B01/g16/l9999.exe)
 1\1\GINC-N2179\SP\RMP2-FC\Aug-CC-pVTZ\H1N1O3\CGAVINH\14-Feb-2022\0\\#p
  SP mp2/aug-cc-pvtz density=current\\title\\0,1\H\O,1,0.96897556\O,2,1
 .45491931,1,97.59494903\N,3,1.45878406,2,102.29752444,1,180.,0\O,4,1.1
 588375021,3,109.06955123,2,180.,0\\Version=ES64L-G16RevB.01\State=1-A'
 \HF=-279.503486\MP2=-280.4465145\RMSD=3.480e-09\Dipole=-0.1282576,0.,-
 0.5304483\Quadrupole=-1.5117942,-0.7336157,2.2454098,0.,2.1125891,0.\P
 G=CS [SG(H1N1O3)]\\@


 THOSE WHO ARE UNABLE TO LEARN FROM PAST MEETINGS
 ARE CONDEMNED TO REPEAT THEM.
 Job cpu time:       0 days  0 hours  6 minutes 33.3 seconds.
 Elapsed time:       0 days  0 hours  0 minutes 18.1 seconds.
 File lengths (MBytes):  RWF=     22 Int=      0 D2E=      0 Chk=      8 Scr=      1
 Normal termination of Gaussian 16 at Mon Feb 14 22:12:13 2022.
