 Entering Gaussian System, Link 0=g16
 Input=hoono_r3_1p427483.gjf
 Output=hoono_r3_1p427483.log
 Initial command:
 /sw/contrib/gaussian/g16/B01/g16/l1.exe "/scr/Gau-17671.inp" -scrdir="/scr/"
 Entering Link 1 = /sw/contrib/gaussian/g16/B01/g16/l1.exe PID=     17672.
  
 Copyright (c) 1988-2017, Gaussian, Inc.  All Rights Reserved.
  
 This is part of the Gaussian(R) 16 program.  It is based on
 the Gaussian(R) 09 system (copyright 2009, Gaussian, Inc.),
 the Gaussian(R) 03 system (copyright 2003, Gaussian, Inc.),
 the Gaussian(R) 98 system (copyright 1998, Gaussian, Inc.),
 the Gaussian(R) 94 system (copyright 1995, Gaussian, Inc.),
 the Gaussian 92(TM) system (copyright 1992, Gaussian, Inc.),
 the Gaussian 90(TM) system (copyright 1990, Gaussian, Inc.),
 the Gaussian 88(TM) system (copyright 1988, Gaussian, Inc.),
 the Gaussian 86(TM) system (copyright 1986, Carnegie Mellon
 University), and the Gaussian 82(TM) system (copyright 1983,
 Carnegie Mellon University). Gaussian is a federally registered
 trademark of Gaussian, Inc.
  
 This software contains proprietary and confidential information,
 including trade secrets, belonging to Gaussian, Inc.
  
 This software is provided under written license and may be
 used, copied, transmitted, or stored only in accord with that
 written license.
  
 The following legend is applicable only to US Government
 contracts under FAR:
  
                    RESTRICTED RIGHTS LEGEND
  
 Use, reproduction and disclosure by the US Government is
 subject to restrictions as set forth in subparagraphs (a)
 and (c) of the Commercial Computer Software - Restricted
 Rights clause in FAR 52.227-19.
  
 Gaussian, Inc.
 340 Quinnipiac St., Bldg. 40, Wallingford CT 06492
  
  
 ---------------------------------------------------------------
 Warning -- This program may not be used in any manner that
 competes with the business of Gaussian, Inc. or will provide
 assistance to any competitor of Gaussian, Inc.  The licensee
 of this program is prohibited from giving any competitor of
 Gaussian, Inc. access to this program.  By using this program,
 the user acknowledges that Gaussian, Inc. is engaged in the
 business of creating and licensing software in the field of
 computational chemistry and represents and warrants to the
 licensee that it is not a competitor of Gaussian, Inc. and that
 it will not use this program in any manner prohibited above.
 ---------------------------------------------------------------
  

 Cite this work as:
 Gaussian 16, Revision B.01,
 M. J. Frisch, G. W. Trucks, H. B. Schlegel, G. E. Scuseria, 
 M. A. Robb, J. R. Cheeseman, G. Scalmani, V. Barone, 
 G. A. Petersson, H. Nakatsuji, X. Li, M. Caricato, A. V. Marenich, 
 J. Bloino, B. G. Janesko, R. Gomperts, B. Mennucci, H. P. Hratchian, 
 J. V. Ortiz, A. F. Izmaylov, J. L. Sonnenberg, D. Williams-Young, 
 F. Ding, F. Lipparini, F. Egidi, J. Goings, B. Peng, A. Petrone, 
 T. Henderson, D. Ranasinghe, V. G. Zakrzewski, J. Gao, N. Rega, 
 G. Zheng, W. Liang, M. Hada, M. Ehara, K. Toyota, R. Fukuda, 
 J. Hasegawa, M. Ishida, T. Nakajima, Y. Honda, O. Kitao, H. Nakai, 
 T. Vreven, K. Throssell, J. A. Montgomery, Jr., J. E. Peralta, 
 F. Ogliaro, M. J. Bearpark, J. J. Heyd, E. N. Brothers, K. N. Kudin, 
 V. N. Staroverov, T. A. Keith, R. Kobayashi, J. Normand, 
 K. Raghavachari, A. P. Rendell, J. C. Burant, S. S. Iyengar, 
 J. Tomasi, M. Cossi, J. M. Millam, M. Klene, C. Adamo, R. Cammi, 
 J. W. Ochterski, R. L. Martin, K. Morokuma, O. Farkas, 
 J. B. Foresman, and D. J. Fox, Gaussian, Inc., Wallingford CT, 2016.
 
 ******************************************
 Gaussian 16:  ES64L-G16RevB.01 20-Dec-2017
                14-Feb-2022 
 ******************************************
 %nproc=28
 Will use up to   28 processors via shared memory.
 %mem=120GB
 %chk=hoono_r3_1p427483.chk
 -------------------------------------
 #p SP mp2/aug-cc-pvtz density=current
 -------------------------------------
 1/30=1,38=1,172=1/1;
 2/12=2,17=6,18=5,40=1/2;
 3/5=16,6=1,7=10,11=9,25=1,30=1,71=1/1,2,3;
 4//1;
 5/5=2,38=5/2;
 8/6=4,10=1/1;
 9/15=1,16=-3/6;
 10/5=1,13=10/2;
 6/7=2,8=2,9=2,10=2,22=-1/1;
 99/5=1,9=1/99;
 Leave Link    1 at Mon Feb 14 22:11:19 2022, MaxMem= 16106127360 cpu:               5.6 elap:               0.2
 (Enter /sw/contrib/gaussian/g16/B01/g16/l101.exe)
 -----
 title
 -----
 Symbolic Z-matrix:
 Charge =  0 Multiplicity = 1
 H
 O                    1    r1
 O                    2    r2       1    a1
 N                    3    r3       2    a2       1    d1       0
 O                    4    r4       3    a3       2    d2       0
       Variables:
  r1                    0.96898                  
  r2                    1.45492                  
  r3                    1.42748                  
  r4                    1.17073                  
  a1                   97.59495                  
  a2                  102.29752                  
  a3                  109.06955                  
  d1                  180.                       
  d2                  180.                       
 
 ITRead=  0  0  0  0  0
 MicOpt= -1 -1 -1 -1 -1
 NAtoms=      5 NQM=        5 NQMF=       0 NMMI=      0 NMMIF=      0
                NMic=       0 NMicF=      0.
                    Isotopes and Nuclear Properties:
 (Nuclear quadrupole moments (NQMom) in fm**2, nuclear magnetic moments (NMagM)
  in nuclear magnetons)

  Atom         1           2           3           4           5
 IAtWgt=           1          16          16          14          16
 AtmWgt=   1.0078250  15.9949146  15.9949146  14.0030740  15.9949146
 NucSpn=           1           0           0           2           0
 AtZEff=  -0.0000000  -0.0000000  -0.0000000  -0.0000000  -0.0000000
 NQMom=    0.0000000   0.0000000   0.0000000   2.0440000   0.0000000
 NMagM=    2.7928460   0.0000000   0.0000000   0.4037610   0.0000000
 AtZNuc=   1.0000000   8.0000000   8.0000000   7.0000000   8.0000000
 Leave Link  101 at Mon Feb 14 22:11:19 2022, MaxMem= 16106127360 cpu:               2.3 elap:               0.1
 (Enter /sw/contrib/gaussian/g16/B01/g16/l202.exe)
                          Input orientation:                          
 ---------------------------------------------------------------------
 Center     Atomic      Atomic             Coordinates (Angstroms)
 Number     Number       Type             X           Y           Z
 ---------------------------------------------------------------------
      1          1           0        0.000000    0.000000    0.000000
      2          8           0        0.000000    0.000000    0.968976
      3          8           0        1.442156    0.000000    1.161271
      4          7           0        1.559185    0.000000    2.583949
      5          8           0        2.693301    0.000000    2.874444
 ---------------------------------------------------------------------
                    Distance matrix (angstroms):
                    1          2          3          4          5
     1  H    0.000000
     2  O    0.968976   0.000000
     3  O    1.851584   1.454919   0.000000
     4  N    3.017922   2.244816   1.427484   0.000000
     5  O    3.939073   3.299194   2.121398   1.170729   0.000000
 Stoichiometry    HNO3
 Framework group  CS[SG(HNO3)]
 Deg. of freedom     7
 Full point group                 CS      NOp   2
 Largest Abelian subgroup         CS      NOp   2
 Largest concise Abelian subgroup C1      NOp   1
                         Standard orientation:                         
 ---------------------------------------------------------------------
 Center     Atomic      Atomic             Coordinates (Angstroms)
 Number     Number       Type             X           Y           Z
 ---------------------------------------------------------------------
      1          1           0        1.553152    1.666589   -0.000000
      2          8           0        1.454251    0.702674   -0.000000
      3          8           0        0.000000    0.658580    0.000000
      4          7           0       -0.261628   -0.744723    0.000000
      5          8           0       -1.419471   -0.917945    0.000000
 ---------------------------------------------------------------------
 Rotational constants (GHZ):          56.3300308           5.0909767           4.6690031
 Leave Link  202 at Mon Feb 14 22:11:19 2022, MaxMem= 16106127360 cpu:               0.3 elap:               0.0
 (Enter /sw/contrib/gaussian/g16/B01/g16/l301.exe)
 Standard basis: Aug-CC-pVTZ (5D, 7F)
 Ernie: Thresh=  0.10000D-02 Tol=  0.10000D-05 Strict=F.
 Ernie:  12 primitive shells out of 131 were deleted.
 There are   166 symmetry adapted cartesian basis functions of A'  symmetry.
 There are    79 symmetry adapted cartesian basis functions of A"  symmetry.
 There are   136 symmetry adapted basis functions of A'  symmetry.
 There are    71 symmetry adapted basis functions of A"  symmetry.
   207 basis functions,   315 primitive gaussians,   245 cartesian basis functions
    16 alpha electrons       16 beta electrons
       nuclear repulsion energy       117.7382392949 Hartrees.
 IExCor=    0 DFT=F Ex=HF Corr=None ExCW=0 ScaHFX=  1.000000
 ScaDFX=  1.000000  1.000000  1.000000  1.000000 ScalE2=  1.000000  1.000000
 IRadAn=      5 IRanWt=     -1 IRanGd=            0 ICorTp=0 IEmpDi=  4
 NAtoms=    5 NActive=    5 NUniq=    5 SFac= 1.00D+00 NAtFMM=   60 NAOKFM=F Big=F
 Integral buffers will be    131072 words long.
 Raffenetti 1 integral format.
 Two-electron integral symmetry is turned on.
 Leave Link  301 at Mon Feb 14 22:11:19 2022, MaxMem= 16106127360 cpu:               2.2 elap:               0.1
 (Enter /sw/contrib/gaussian/g16/B01/g16/l302.exe)
 NPDir=0 NMtPBC=     1 NCelOv=     1 NCel=       1 NClECP=     1 NCelD=      1
         NCelK=      1 NCelE2=     1 NClLst=     1 CellRange=     0.0.
 One-electron integrals computed using PRISM.
 One-electron integral symmetry used in STVInt
 NBasis=   207 RedAO= T EigKep=  1.78D-04  NBF=   136    71
 NBsUse=   207 1.00D-06 EigRej= -1.00D+00 NBFU=   136    71
 Leave Link  302 at Mon Feb 14 22:11:19 2022, MaxMem= 16106127360 cpu:               4.5 elap:               0.2
 (Enter /sw/contrib/gaussian/g16/B01/g16/l303.exe)
 DipDrv:  MaxL=1.
 Leave Link  303 at Mon Feb 14 22:11:19 2022, MaxMem= 16106127360 cpu:               1.2 elap:               0.1
 (Enter /sw/contrib/gaussian/g16/B01/g16/l401.exe)
 ExpMin= 2.53D-02 ExpMax= 1.53D+04 ExpMxC= 5.22D+02 IAcc=3 IRadAn=         5 AccDes= 0.00D+00
 Harris functional with IExCor=  205 and IRadAn=       5 diagonalized for initial guess.
 HarFok:  IExCor=  205 AccDes= 0.00D+00 IRadAn=         5 IDoV= 1 UseB2=F ITyADJ=14
 ICtDFT=  3500011 ScaDFX=  1.000000  1.000000  1.000000  1.000000
 FoFCou: FMM=F IPFlag=           0 FMFlag=      100000 FMFlg1=           0
         NFxFlg=           0 DoJE=T BraDBF=F KetDBF=T FulRan=T
         wScrn=  0.000000 ICntrl=       500 IOpCl=  0 I1Cent=   200000004 NGrid=           0
         NMat0=    1 NMatS0=      1 NMatT0=    0 NMatD0=    1 NMtDS0=    0 NMtDT0=    0
 Petite list used in FoFCou.
 Harris En= -279.629812199057    
 JPrj=0 DoOrth=F DoCkMO=F.
 Initial guess orbital symmetries:
       Occupied  (A') (A') (A') (A') (A') (A') (A') (A') (A') (A')
                 (A") (A') (A') (A") (A") (A')
       Virtual   (A") (A') (A') (A') (A') (A') (A") (A') (A') (A')
                 (A") (A') (A") (A') (A') (A") (A') (A") (A') (A')
                 (A') (A') (A') (A') (A') (A") (A') (A") (A') (A')
                 (A") (A') (A") (A') (A') (A") (A') (A") (A') (A')
                 (A") (A') (A") (A') (A") (A') (A') (A') (A") (A")
                 (A') (A') (A') (A') (A") (A') (A") (A') (A") (A')
                 (A') (A') (A") (A') (A') (A") (A') (A") (A') (A')
                 (A") (A') (A') (A") (A") (A') (A') (A") (A') (A')
                 (A') (A") (A') (A") (A') (A") (A') (A") (A') (A')
                 (A') (A") (A') (A") (A') (A") (A") (A') (A") (A')
                 (A') (A') (A") (A') (A') (A') (A") (A') (A") (A')
                 (A") (A') (A') (A') (A") (A') (A') (A') (A") (A')
                 (A") (A') (A') (A") (A") (A') (A') (A") (A") (A')
                 (A') (A') (A') (A") (A") (A') (A") (A') (A') (A')
                 (A') (A") (A") (A') (A') (A") (A') (A') (A') (A')
                 (A") (A') (A') (A") (A') (A") (A') (A") (A') (A")
                 (A') (A") (A') (A") (A') (A") (A") (A") (A') (A')
                 (A") (A') (A") (A') (A") (A') (A") (A") (A') (A')
                 (A') (A') (A') (A') (A') (A') (A') (A') (A') (A')
                 (A')
 The electronic state of the initial guess is 1-A'.
 Leave Link  401 at Mon Feb 14 22:11:20 2022, MaxMem= 16106127360 cpu:               6.7 elap:               0.3
 (Enter /sw/contrib/gaussian/g16/B01/g16/l502.exe)
 Keep R1 ints in memory in symmetry-blocked form, NReq=348887737.
 FoFCou: FMM=F IPFlag=           0 FMFlag=           0 FMFlg1=           0
         NFxFlg=           0 DoJE=F BraDBF=F KetDBF=F FulRan=T
         wScrn=  0.000000 ICntrl=       600 IOpCl=  0 I1Cent=           0 NGrid=           0
         NMat0=    1 NMatS0=  21528 NMatT0=    0 NMatD0=    1 NMtDS0=    0 NMtDT0=    0
 Petite list used in FoFCou.
 Closed shell SCF:
 Using DIIS extrapolation, IDIIS=  1040.
 NGot= 16106127360 LenX= 15988850015 LenY= 15988789549
 Requested convergence on RMS density matrix=1.00D-08 within 128 cycles.
 Requested convergence on MAX density matrix=1.00D-06.
 Requested convergence on             energy=1.00D-06.
 No special actions if energy rises.

 Cycle   1  Pass 1  IDiag  1:
 E= -279.369649683699    
 DIIS: error= 2.54D-02 at cycle   1 NSaved=   1.
 NSaved= 1 IEnMin= 1 EnMin= -279.369649683699     IErMin= 1 ErrMin= 2.54D-02
 ErrMax= 2.54D-02  0.00D+00 EMaxC= 1.00D-01 BMatC= 4.43D-01 BMatP= 4.43D-01
 IDIUse=3 WtCom= 7.46D-01 WtEn= 2.54D-01
 Coeff-Com:  0.100D+01
 Coeff-En:   0.100D+01
 Coeff:      0.100D+01
 Gap=     0.522 Goal=   None    Shift=    0.000
 GapD=    0.522 DampG=2.000 DampE=0.500 DampFc=1.0000 IDamp=-1.
 RMSDP=1.65D-03 MaxDP=9.69D-02              OVMax= 1.18D-01

 Cycle   2  Pass 1  IDiag  1:
 E= -279.451237768143     Delta-E=       -0.081588084444 Rises=F Damp=F
 DIIS: error= 1.79D-02 at cycle   2 NSaved=   2.
 NSaved= 2 IEnMin= 2 EnMin= -279.451237768143     IErMin= 2 ErrMin= 1.79D-02
 ErrMax= 1.79D-02  0.00D+00 EMaxC= 1.00D-01 BMatC= 7.83D-02 BMatP= 4.43D-01
 IDIUse=3 WtCom= 8.21D-01 WtEn= 1.79D-01
 Coeff-Com:  0.206D+00 0.794D+00
 Coeff-En:   0.357D-01 0.964D+00
 Coeff:      0.176D+00 0.824D+00
 Gap=     0.535 Goal=   None    Shift=    0.000
 RMSDP=9.23D-04 MaxDP=3.81D-02 DE=-8.16D-02 OVMax= 6.60D-02

 Cycle   3  Pass 1  IDiag  1:
 E= -279.484251644820     Delta-E=       -0.033013876677 Rises=F Damp=F
 DIIS: error= 9.56D-03 at cycle   3 NSaved=   3.
 NSaved= 3 IEnMin= 3 EnMin= -279.484251644820     IErMin= 3 ErrMin= 9.56D-03
 ErrMax= 9.56D-03  0.00D+00 EMaxC= 1.00D-01 BMatC= 2.87D-02 BMatP= 7.83D-02
 IDIUse=3 WtCom= 9.04D-01 WtEn= 9.56D-02
 Coeff-Com: -0.339D-01 0.367D+00 0.667D+00
 Coeff-En:   0.000D+00 0.223D+00 0.777D+00
 Coeff:     -0.306D-01 0.353D+00 0.677D+00
 Gap=     0.510 Goal=   None    Shift=    0.000
 RMSDP=3.78D-04 MaxDP=1.48D-02 DE=-3.30D-02 OVMax= 4.06D-02

 Cycle   4  Pass 1  IDiag  1:
 E= -279.503431143133     Delta-E=       -0.019179498312 Rises=F Damp=F
 DIIS: error= 1.25D-03 at cycle   4 NSaved=   4.
 NSaved= 4 IEnMin= 4 EnMin= -279.503431143133     IErMin= 4 ErrMin= 1.25D-03
 ErrMax= 1.25D-03  0.00D+00 EMaxC= 1.00D-01 BMatC= 4.61D-04 BMatP= 2.87D-02
 IDIUse=3 WtCom= 9.88D-01 WtEn= 1.25D-02
 Coeff-Com: -0.109D-01 0.461D-01 0.144D+00 0.820D+00
 Coeff-En:   0.000D+00 0.000D+00 0.000D+00 0.100D+01
 Coeff:     -0.108D-01 0.455D-01 0.143D+00 0.823D+00
 Gap=     0.502 Goal=   None    Shift=    0.000
 RMSDP=8.98D-05 MaxDP=2.66D-03 DE=-1.92D-02 OVMax= 1.05D-02

 Cycle   5  Pass 1  IDiag  1:
 E= -279.504074953556     Delta-E=       -0.000643810424 Rises=F Damp=F
 DIIS: error= 6.79D-04 at cycle   5 NSaved=   5.
 NSaved= 5 IEnMin= 5 EnMin= -279.504074953556     IErMin= 5 ErrMin= 6.79D-04
 ErrMax= 6.79D-04  0.00D+00 EMaxC= 1.00D-01 BMatC= 8.15D-05 BMatP= 4.61D-04
 IDIUse=3 WtCom= 9.93D-01 WtEn= 6.79D-03
 Coeff-Com:  0.592D-02-0.678D-01-0.113D+00 0.310D-01 0.114D+01
 Coeff-En:   0.000D+00 0.000D+00 0.000D+00 0.000D+00 0.100D+01
 Coeff:      0.588D-02-0.674D-01-0.112D+00 0.308D-01 0.114D+01
 Gap=     0.502 Goal=   None    Shift=    0.000
 RMSDP=7.23D-05 MaxDP=2.03D-03 DE=-6.44D-04 OVMax= 1.06D-02

 Cycle   6  Pass 1  IDiag  1:
 E= -279.504359823087     Delta-E=       -0.000284869531 Rises=F Damp=F
 DIIS: error= 2.84D-04 at cycle   6 NSaved=   6.
 NSaved= 6 IEnMin= 6 EnMin= -279.504359823087     IErMin= 6 ErrMin= 2.84D-04
 ErrMax= 2.84D-04  0.00D+00 EMaxC= 1.00D-01 BMatC= 1.57D-05 BMatP= 8.15D-05
 IDIUse=3 WtCom= 9.97D-01 WtEn= 2.84D-03
 Coeff-Com:  0.504D-03 0.243D-02 0.548D-02-0.137D+00-0.214D+00 0.134D+01
 Coeff-En:   0.000D+00 0.000D+00 0.000D+00 0.000D+00 0.000D+00 0.100D+01
 Coeff:      0.503D-03 0.242D-02 0.547D-02-0.137D+00-0.214D+00 0.134D+01
 Gap=     0.502 Goal=   None    Shift=    0.000
 RMSDP=4.26D-05 MaxDP=1.16D-03 DE=-2.85D-04 OVMax= 5.33D-03

 Cycle   7  Pass 1  IDiag  1:
 E= -279.504424736284     Delta-E=       -0.000064913197 Rises=F Damp=F
 DIIS: error= 9.94D-05 at cycle   7 NSaved=   7.
 NSaved= 7 IEnMin= 7 EnMin= -279.504424736284     IErMin= 7 ErrMin= 9.94D-05
 ErrMax= 9.94D-05  0.00D+00 EMaxC= 1.00D-01 BMatC= 3.77D-06 BMatP= 1.57D-05
 IDIUse=1 WtCom= 1.00D+00 WtEn= 0.00D+00
 Coeff-Com: -0.901D-03 0.123D-01 0.245D-01-0.223D-01-0.262D+00 0.327D+00
 Coeff-Com:  0.921D+00
 Coeff:     -0.901D-03 0.123D-01 0.245D-01-0.223D-01-0.262D+00 0.327D+00
 Coeff:      0.921D+00
 Gap=     0.502 Goal=   None    Shift=    0.000
 RMSDP=1.24D-05 MaxDP=3.51D-04 DE=-6.49D-05 OVMax= 1.48D-03

 Cycle   8  Pass 1  IDiag  1:
 E= -279.504432411611     Delta-E=       -0.000007675327 Rises=F Damp=F
 DIIS: error= 5.59D-05 at cycle   8 NSaved=   8.
 NSaved= 8 IEnMin= 8 EnMin= -279.504432411611     IErMin= 8 ErrMin= 5.59D-05
 ErrMax= 5.59D-05  0.00D+00 EMaxC= 1.00D-01 BMatC= 5.41D-07 BMatP= 3.77D-06
 IDIUse=1 WtCom= 1.00D+00 WtEn= 0.00D+00
 Coeff-Com: -0.408D-03 0.301D-02 0.687D-02 0.266D-01-0.419D-01-0.190D+00
 Coeff-Com:  0.208D+00 0.988D+00
 Coeff:     -0.408D-03 0.301D-02 0.687D-02 0.266D-01-0.419D-01-0.190D+00
 Coeff:      0.208D+00 0.988D+00
 Gap=     0.502 Goal=   None    Shift=    0.000
 RMSDP=6.03D-06 MaxDP=1.86D-04 DE=-7.68D-06 OVMax= 6.54D-04

 Cycle   9  Pass 1  IDiag  1:
 E= -279.504433883384     Delta-E=       -0.000001471772 Rises=F Damp=F
 DIIS: error= 1.60D-05 at cycle   9 NSaved=   9.
 NSaved= 9 IEnMin= 9 EnMin= -279.504433883384     IErMin= 9 ErrMin= 1.60D-05
 ErrMax= 1.60D-05  0.00D+00 EMaxC= 1.00D-01 BMatC= 6.85D-08 BMatP= 5.41D-07
 IDIUse=1 WtCom= 1.00D+00 WtEn= 0.00D+00
 Coeff-Com:  0.107D-03-0.154D-02-0.276D-02-0.718D-03 0.327D-01-0.661D-02
 Coeff-Com: -0.177D+00-0.505D-01 0.121D+01
 Coeff:      0.107D-03-0.154D-02-0.276D-02-0.718D-03 0.327D-01-0.661D-02
 Coeff:     -0.177D+00-0.505D-01 0.121D+01
 Gap=     0.502 Goal=   None    Shift=    0.000
 RMSDP=1.84D-06 MaxDP=6.34D-05 DE=-1.47D-06 OVMax= 1.73D-04

 Cycle  10  Pass 1  IDiag  1:
 E= -279.504434035986     Delta-E=       -0.000000152602 Rises=F Damp=F
 DIIS: error= 4.28D-06 at cycle  10 NSaved=  10.
 NSaved=10 IEnMin=10 EnMin= -279.504434035986     IErMin=10 ErrMin= 4.28D-06
 ErrMax= 4.28D-06  0.00D+00 EMaxC= 1.00D-01 BMatC= 5.72D-09 BMatP= 6.85D-08
 IDIUse=1 WtCom= 1.00D+00 WtEn= 0.00D+00
 Coeff-Com:  0.341D-04-0.270D-03-0.396D-03-0.293D-02 0.261D-02 0.212D-01
 Coeff-Com: -0.212D-01-0.793D-01-0.670D-01 0.115D+01
 Coeff:      0.341D-04-0.270D-03-0.396D-03-0.293D-02 0.261D-02 0.212D-01
 Coeff:     -0.212D-01-0.793D-01-0.670D-01 0.115D+01
 Gap=     0.502 Goal=   None    Shift=    0.000
 RMSDP=5.20D-07 MaxDP=2.16D-05 DE=-1.53D-07 OVMax= 4.55D-05

 Cycle  11  Pass 1  IDiag  1:
 E= -279.504434049330     Delta-E=       -0.000000013345 Rises=F Damp=F
 DIIS: error= 2.01D-06 at cycle  11 NSaved=  11.
 NSaved=11 IEnMin=11 EnMin= -279.504434049330     IErMin=11 ErrMin= 2.01D-06
 ErrMax= 2.01D-06  0.00D+00 EMaxC= 1.00D-01 BMatC= 6.83D-10 BMatP= 5.72D-09
 IDIUse=1 WtCom= 1.00D+00 WtEn= 0.00D+00
 Coeff-Com: -0.212D-04 0.237D-03 0.481D-03 0.524D-03-0.452D-02-0.351D-02
 Coeff-Com:  0.243D-01 0.292D-01-0.140D+00-0.210D+00 0.130D+01
 Coeff:     -0.212D-04 0.237D-03 0.481D-03 0.524D-03-0.452D-02-0.351D-02
 Coeff:      0.243D-01 0.292D-01-0.140D+00-0.210D+00 0.130D+01
 Gap=     0.502 Goal=   None    Shift=    0.000
 RMSDP=1.88D-07 MaxDP=7.13D-06 DE=-1.33D-08 OVMax= 1.75D-05

 Cycle  12  Pass 1  IDiag  1:
 E= -279.504434051238     Delta-E=       -0.000000001908 Rises=F Damp=F
 DIIS: error= 5.44D-07 at cycle  12 NSaved=  12.
 NSaved=12 IEnMin=12 EnMin= -279.504434051238     IErMin=12 ErrMin= 5.44D-07
 ErrMax= 5.44D-07  0.00D+00 EMaxC= 1.00D-01 BMatC= 6.47D-11 BMatP= 6.83D-10
 IDIUse=1 WtCom= 1.00D+00 WtEn= 0.00D+00
 Coeff-Com:  0.935D-06-0.247D-04-0.545D-04 0.218D-03 0.980D-03-0.236D-02
 Coeff-Com: -0.394D-02 0.633D-02 0.401D-01-0.101D+00-0.285D+00 0.134D+01
 Coeff:      0.935D-06-0.247D-04-0.545D-04 0.218D-03 0.980D-03-0.236D-02
 Coeff:     -0.394D-02 0.633D-02 0.401D-01-0.101D+00-0.285D+00 0.134D+01
 Gap=     0.502 Goal=   None    Shift=    0.000
 RMSDP=7.01D-08 MaxDP=2.77D-06 DE=-1.91D-09 OVMax= 6.13D-06

 Cycle  13  Pass 1  IDiag  1:
 E= -279.504434051442     Delta-E=       -0.000000000204 Rises=F Damp=F
 DIIS: error= 1.53D-07 at cycle  13 NSaved=  13.
 NSaved=13 IEnMin=13 EnMin= -279.504434051442     IErMin=13 ErrMin= 1.53D-07
 ErrMax= 1.53D-07  0.00D+00 EMaxC= 1.00D-01 BMatC= 3.20D-12 BMatP= 6.47D-11
 IDIUse=1 WtCom= 1.00D+00 WtEn= 0.00D+00
 Coeff-Com:  0.121D-05-0.129D-04-0.217D-04-0.843D-04 0.143D-03 0.688D-03
 Coeff-Com: -0.102D-02-0.293D-02 0.746D-03 0.364D-01-0.316D-01-0.295D+00
 Coeff-Com:  0.129D+01
 Coeff:      0.121D-05-0.129D-04-0.217D-04-0.843D-04 0.143D-03 0.688D-03
 Coeff:     -0.102D-02-0.293D-02 0.746D-03 0.364D-01-0.316D-01-0.295D+00
 Coeff:      0.129D+01
 Gap=     0.502 Goal=   None    Shift=    0.000
 RMSDP=1.72D-08 MaxDP=4.61D-07 DE=-2.04D-10 OVMax= 1.40D-06

 Cycle  14  Pass 1  IDiag  1:
 E= -279.504434051454     Delta-E=       -0.000000000012 Rises=F Damp=F
 DIIS: error= 2.04D-08 at cycle  14 NSaved=  14.
 NSaved=14 IEnMin=14 EnMin= -279.504434051454     IErMin=14 ErrMin= 2.04D-08
 ErrMax= 2.04D-08  0.00D+00 EMaxC= 1.00D-01 BMatC= 1.52D-13 BMatP= 3.20D-12
 IDIUse=1 WtCom= 1.00D+00 WtEn= 0.00D+00
 Coeff-Com: -0.157D-06 0.258D-05 0.467D-05 0.257D-05-0.739D-04 0.467D-04
 Coeff-Com:  0.288D-03 0.144D-03-0.221D-02 0.101D-02 0.158D-01-0.261D-01
 Coeff-Com: -0.188D+00 0.120D+01
 Coeff:     -0.157D-06 0.258D-05 0.467D-05 0.257D-05-0.739D-04 0.467D-04
 Coeff:      0.288D-03 0.144D-03-0.221D-02 0.101D-02 0.158D-01-0.261D-01
 Coeff:     -0.188D+00 0.120D+01
 Gap=     0.502 Goal=   None    Shift=    0.000
 RMSDP=3.41D-09 MaxDP=8.61D-08 DE=-1.19D-11 OVMax= 3.07D-07

 SCF Done:  E(RHF) =  -279.504434051     A.U. after   14 cycles
            NFock= 14  Conv=0.34D-08     -V/T= 2.0022
 KE= 2.788989667476D+02 PE=-8.968120372014D+02 EE= 2.206703971074D+02
 Leave Link  502 at Mon Feb 14 22:11:23 2022, MaxMem= 16106127360 cpu:              56.1 elap:               3.6
 (Enter /sw/contrib/gaussian/g16/B01/g16/l801.exe)
 ExpMin= 2.53D-02 ExpMax= 1.53D+04 ExpMxC= 5.22D+02 IAcc=3 IRadAn=         5 AccDes= 0.00D+00
 HarFok:  IExCor=  205 AccDes= 0.00D+00 IRadAn=         5 IDoV=-2 UseB2=F ITyADJ=14
 ICtDFT= 12500011 ScaDFX=  1.000000  1.000000  1.000000  1.000000
 Largest valence mixing into a core orbital is  2.07D-04
 Largest core mixing into a valence orbital is  3.53D-05
 Range of M.O.s used for correlation:     5   207
 NBasis=   207 NAE=    16 NBE=    16 NFC=     4 NFV=     0
 NROrb=    203 NOA=    12 NOB=    12 NVA=   191 NVB=   191

 **** Warning!!: The largest alpha MO coefficient is  0.17992150D+02

 Leave Link  801 at Mon Feb 14 22:11:24 2022, MaxMem= 16106127360 cpu:               2.3 elap:               0.1
 (Enter /sw/contrib/gaussian/g16/B01/g16/l906.exe)
 Frozen-core derivative calculation, NFC=   4 NFV=   0.
 FulOut=F Deriv=T AODrv=F NAtomX=     5
   MMem=          76  MDisk=          12 MDiskD=          12
  W3Min=      811440 MinDsk=     1524655 NBas6D=         245
 NBas2D=       30762    NTT=       30135    LW2=     3500000
    MDV= 16105579773 MDiskM=      328644 NBas2p=       30466
 Fully in-core method, ICMem=   960157634.
 IMap=   1   2   3   4   5   6   7   8   9  10  11  12  13  14  15  16
 JobTyp=1 Pass  1 fully in-core, NPsUse= 28.
 Compute canonical integrals.
 FoFCou: FMM=F IPFlag=           0 FMFlag=           0 FMFlg1=           0
         NFxFlg=           0 DoJE=F BraDBF=F KetDBF=F FulRan=T
         wScrn=  0.000000 ICntrl=       600 IOpCl=  1 I1Cent=           0 NGrid=           0
         NMat0=    1 NMatS0=  30762 NMatT0=    0 NMatD0=    1 NMtDS0=    0 NMtDT0=    0
 Symmetry not used in FoFCou.
 Spin components of T(2) and E(2):
     alpha-alpha T2 =       0.3365530063D-01 E2=     -0.1220610305D+00
     alpha-beta  T2 =       0.1846944999D+00 E2=     -0.6979612386D+00
     beta-beta   T2 =       0.3365530063D-01 E2=     -0.1220610305D+00
 The integrals were generated   1 times.
 ANorm=    0.1118930338D+01
 E2 =    -0.9420832996D+00 EUMP2 =    -0.28044651735101D+03
 Leave Link  906 at Mon Feb 14 22:11:32 2022, MaxMem= 16106127360 cpu:             245.8 elap:               8.8
 (Enter /sw/contrib/gaussian/g16/B01/g16/l1002.exe)
 Minotr:  Closed shell wavefunction.
          Computing MP2/KS-MP2 derivatives.
          Using Z-Vector for PSCF gradient.
          Skipping F1 and S1 gradient terms here.
          Frozen-core window.
          Direct CPHF calculation.
          Differentiating once with respect to electric field.
                with respect to dipole field.
          Electric field/nuclear overlap derivatives assumed to be zero.
          Using symmetry in CPHF.
          Requested convergence is 1.0D-10 RMS, and 1.0D-09 maximum.
          NewPWx=F KeepS1=T KeepF1=T KeepIn=T MapXYZ=F SortEE=F KeepMc=T.
 Keep R1 ints in memory in symmetry-blocked form, NReq=348888868.
 FoFCou: FMM=F IPFlag=           0 FMFlag=           0 FMFlg1=           0
         NFxFlg=           0 DoJE=F BraDBF=F KetDBF=F FulRan=T
         wScrn=  0.000000 ICntrl=       600 IOpCl=  0 I1Cent=           0 NGrid=           0
         NMat0=    1 NMatS0=  21528 NMatT0=    0 NMatD0=    1 NMtDS0=    0 NMtDT0=    0
 Petite list used in FoFCou.
          MDV=   16106127360 using IRadAn=       5.
          Solving linear equations separately, MaxMat=       0.
          There are     1 degrees of freedom in the 1st order CPHF.  IDoFFX=0 NUNeed=     1.
 LinEq1:  Iter=  0 NonCon=     1 RMS=5.84D-03 Max=1.33D-01 NDo=     1
 AX will form     1 AO Fock derivatives at one time.
 LinEq1:  Iter=  1 NonCon=     1 RMS=1.81D-03 Max=3.57D-02 NDo=     1
 LinEq1:  Iter=  2 NonCon=     1 RMS=8.23D-04 Max=1.19D-02 NDo=     1
 LinEq1:  Iter=  3 NonCon=     1 RMS=3.65D-04 Max=7.76D-03 NDo=     1
 LinEq1:  Iter=  4 NonCon=     1 RMS=1.13D-04 Max=1.38D-03 NDo=     1
 LinEq1:  Iter=  5 NonCon=     1 RMS=4.34D-05 Max=6.92D-04 NDo=     1
 LinEq1:  Iter=  6 NonCon=     1 RMS=1.95D-05 Max=2.19D-04 NDo=     1
 LinEq1:  Iter=  7 NonCon=     1 RMS=7.66D-06 Max=1.39D-04 NDo=     1
 LinEq1:  Iter=  8 NonCon=     1 RMS=3.28D-06 Max=2.94D-05 NDo=     1
 LinEq1:  Iter=  9 NonCon=     1 RMS=8.84D-07 Max=1.11D-05 NDo=     1
 LinEq1:  Iter= 10 NonCon=     1 RMS=1.68D-07 Max=1.74D-06 NDo=     1
 LinEq1:  Iter= 11 NonCon=     1 RMS=3.05D-08 Max=3.03D-07 NDo=     1
 LinEq1:  Iter= 12 NonCon=     1 RMS=7.33D-09 Max=1.09D-07 NDo=     1
 LinEq1:  Iter= 13 NonCon=     1 RMS=1.35D-09 Max=2.16D-08 NDo=     1
 LinEq1:  Iter= 14 NonCon=     1 RMS=2.40D-10 Max=3.02D-09 NDo=     1
 LinEq1:  Iter= 15 NonCon=     0 RMS=4.35D-11 Max=4.38D-10 NDo=     1
 Linear equations converged to 1.000D-10 1.000D-09 after    15 iterations.
 End of Minotr F.D. properties file   721 does not exist.
 End of Minotr F.D. properties file   722 does not exist.
 End of Minotr F.D. properties file   788 does not exist.
 Leave Link 1002 at Mon Feb 14 22:11:36 2022, MaxMem= 16106127360 cpu:              53.0 elap:               3.9
 (Enter /sw/contrib/gaussian/g16/B01/g16/l601.exe)
 Copying SCF densities to generalized density rwf, IOpCl= 0 IROHF=0.

 **********************************************************************

            Population analysis using the MP2 Density.

 **********************************************************************

 Orbital symmetries:
       Occupied  (A') (A') (A') (A') (A') (A') (A') (A') (A') (A')
                 (A") (A') (A") (A') (A") (A')
       Virtual   (A') (A") (A') (A') (A') (A") (A') (A') (A") (A')
                 (A") (A') (A') (A') (A") (A') (A') (A") (A') (A')
                 (A') (A') (A') (A') (A") (A') (A') (A") (A') (A')
                 (A") (A') (A") (A') (A') (A") (A') (A") (A') (A")
                 (A') (A') (A") (A') (A') (A") (A') (A') (A") (A')
                 (A") (A') (A') (A') (A") (A') (A") (A') (A") (A')
                 (A') (A') (A") (A') (A') (A") (A') (A") (A') (A')
                 (A") (A') (A') (A") (A") (A') (A') (A") (A') (A')
                 (A') (A") (A') (A") (A") (A') (A') (A") (A') (A')
                 (A") (A') (A') (A") (A') (A") (A') (A") (A') (A')
                 (A") (A') (A") (A') (A') (A') (A") (A') (A") (A')
                 (A") (A') (A') (A') (A") (A') (A') (A') (A') (A")
                 (A") (A') (A") (A') (A') (A") (A") (A') (A") (A')
                 (A') (A') (A') (A") (A") (A") (A') (A') (A') (A')
                 (A") (A') (A") (A') (A') (A") (A') (A') (A') (A')
                 (A") (A') (A') (A") (A') (A") (A') (A") (A') (A")
                 (A') (A") (A') (A") (A') (A") (A") (A') (A") (A')
                 (A") (A') (A") (A') (A") (A') (A") (A") (A') (A')
                 (A') (A') (A') (A') (A') (A') (A') (A') (A') (A')
                 (A')
 The electronic state is 1-A'.
 Alpha  occ. eigenvalues --  -20.69618 -20.67680 -20.66380 -15.80784  -1.62643
 Alpha  occ. eigenvalues --   -1.49989  -1.26390  -0.94589  -0.77538  -0.76307
 Alpha  occ. eigenvalues --   -0.71756  -0.67776  -0.61878  -0.59100  -0.48831
 Alpha  occ. eigenvalues --   -0.47355
 Alpha virt. eigenvalues --    0.02877   0.07573   0.08648   0.10204   0.13367
 Alpha virt. eigenvalues --    0.13408   0.14345   0.15392   0.17757   0.19420
 Alpha virt. eigenvalues --    0.19998   0.21002   0.21982   0.23402   0.23778
 Alpha virt. eigenvalues --    0.26611   0.30291   0.30321   0.31498   0.34574
 Alpha virt. eigenvalues --    0.35130   0.38932   0.42081   0.43064   0.52882
 Alpha virt. eigenvalues --    0.53053   0.56204   0.58332   0.62821   0.64017
 Alpha virt. eigenvalues --    0.67529   0.68432   0.70516   0.71044   0.72378
 Alpha virt. eigenvalues --    0.72731   0.74369   0.79092   0.79359   0.81058
 Alpha virt. eigenvalues --    0.81158   0.83224   0.87053   0.90840   0.92077
 Alpha virt. eigenvalues --    0.92863   0.95364   0.98190   0.98343   1.01394
 Alpha virt. eigenvalues --    1.05350   1.05635   1.08536   1.12005   1.14450
 Alpha virt. eigenvalues --    1.19113   1.22160   1.23354   1.34244   1.35632
 Alpha virt. eigenvalues --    1.38260   1.45825   1.48796   1.50744   1.54005
 Alpha virt. eigenvalues --    1.57053   1.58593   1.61487   1.66612   1.67035
 Alpha virt. eigenvalues --    1.70618   1.79335   1.83302   1.84014   1.87764
 Alpha virt. eigenvalues --    1.91396   1.95636   1.99848   2.00819   2.08797
 Alpha virt. eigenvalues --    2.12424   2.13641   2.14562   2.23056   2.26240
 Alpha virt. eigenvalues --    2.26426   2.29534   2.31525   2.35195   2.38585
 Alpha virt. eigenvalues --    2.42890   2.43585   2.45875   2.46678   2.48166
 Alpha virt. eigenvalues --    2.50614   2.58675   2.59924   2.62720   2.62851
 Alpha virt. eigenvalues --    2.63224   2.67161   2.76281   2.83821   2.86928
 Alpha virt. eigenvalues --    2.89224   2.89578   2.94916   2.95959   3.03742
 Alpha virt. eigenvalues --    3.07987   3.13208   3.19983   3.23502   3.32228
 Alpha virt. eigenvalues --    3.35110   3.52185   3.65528   3.85307   3.85324
 Alpha virt. eigenvalues --    4.14882   4.15701   4.18914   4.27179   4.35145
 Alpha virt. eigenvalues --    4.39469   4.46170   4.52306   4.67317   4.71441
 Alpha virt. eigenvalues --    4.81091   4.82468   4.85033   4.89878   5.03366
 Alpha virt. eigenvalues --    5.08692   5.11391   5.14389   5.18770   5.25099
 Alpha virt. eigenvalues --    5.28291   5.31516   5.33349   5.36841   5.61241
 Alpha virt. eigenvalues --    5.67933   5.78724   5.82713   5.96428   6.18223
 Alpha virt. eigenvalues --    6.30926   6.35041   6.40275   6.50101   6.51218
 Alpha virt. eigenvalues --    6.61499   6.66635   6.71190   6.75499   6.76281
 Alpha virt. eigenvalues --    6.84091   6.90925   7.02211   7.05439   7.06221
 Alpha virt. eigenvalues --    7.08980   7.13413   7.15867   7.18301   7.23869
 Alpha virt. eigenvalues --    7.23967   7.30207   7.33070   7.35556   7.40878
 Alpha virt. eigenvalues --    7.44576   7.49307   7.61383   7.63143   7.65352
 Alpha virt. eigenvalues --    7.68637   7.80128   7.89661   8.13105   8.32793
 Alpha virt. eigenvalues --    8.40886   8.55982  13.48463  14.57251  15.18992
 Alpha virt. eigenvalues --   16.21667
          Condensed to atoms (all electrons):
               1          2          3          4          5
     1  H    0.589013   0.128185   0.020298   0.012634  -0.000625
     2  O    0.128185   8.322159  -0.170981  -0.096249   0.016344
     3  O    0.020298  -0.170981   8.461273  -0.138805  -0.045322
     4  N    0.012634  -0.096249  -0.138805   6.999984  -0.059870
     5  O   -0.000625   0.016344  -0.045322  -0.059870   8.296356
 Mulliken charges:
               1
     1  H    0.250496
     2  O   -0.199457
     3  O   -0.126462
     4  N    0.282307
     5  O   -0.206883
 Sum of Mulliken charges =  -0.00000
 Mulliken charges with hydrogens summed into heavy atoms:
               1
     2  O    0.051038
     3  O   -0.126462
     4  N    0.282307
     5  O   -0.206883
 Electronic spatial extent (au):  <R**2>=            249.6721
 Charge=             -0.0000 electrons
 Dipole moment (field-independent basis, Debye):
    X=              0.6517    Y=              1.5385    Z=             -0.0000  Tot=              1.6709
 Quadrupole moment (field-independent basis, Debye-Ang):
   XX=            -22.5234   YY=            -18.7473   ZZ=            -21.9651
   XY=              3.1966   XZ=              0.0000   YZ=             -0.0000
 Traceless Quadrupole moment (field-independent basis, Debye-Ang):
   XX=             -1.4448   YY=              2.3313   ZZ=             -0.8865
   XY=              3.1966   XZ=              0.0000   YZ=             -0.0000
 Octapole moment (field-independent basis, Debye-Ang**2):
  XXX=              3.4770  YYY=             11.3462  ZZZ=              0.0000  XYY=              7.9561
  XXY=              6.8300  XXZ=             -0.0000  XZZ=             -1.5248  YZZ=             -0.7349
  YYZ=             -0.0000  XYZ=             -0.0000
 Hexadecapole moment (field-independent basis, Debye-Ang**3):
 XXXX=           -158.6217 YYYY=            -86.6919 ZZZZ=            -18.1498 XXXY=            -35.6658
 XXXZ=              0.0000 YYYX=            -30.2228 YYYZ=              0.0000 ZZZX=              0.0000
 ZZZY=              0.0000 XXYY=            -33.5909 XXZZ=            -30.8914 YYZZ=            -20.0131
 XXYZ=              0.0000 YYXZ=              0.0000 ZZXY=            -14.7206
 N-N= 1.177382392949D+02 E-N=-8.975700140723D+02  KE= 2.802386586910D+02
 Symmetry A'   KE= 2.662558227111D+02
 Symmetry A"   KE= 1.398283597990D+01
 No NMR shielding tensors so no spin-rotation constants.
 Leave Link  601 at Mon Feb 14 22:11:37 2022, MaxMem= 16106127360 cpu:               6.1 elap:               0.3
 (Enter /sw/contrib/gaussian/g16/B01/g16/l9999.exe)
 1\1\GINC-N2179\SP\RMP2-FC\Aug-CC-pVTZ\H1N1O3\CGAVINH\14-Feb-2022\0\\#p
  SP mp2/aug-cc-pvtz density=current\\title\\0,1\H\O,1,0.96897556\O,2,1
 .45491931,1,97.59494903\N,3,1.4274836704,2,102.29752444,1,180.,0\O,4,1
 .17072885,3,109.06955123,2,180.,0\\Version=ES64L-G16RevB.01\State=1-A'
 \HF=-279.5044341\MP2=-280.4465174\RMSD=3.406e-09\Dipole=-0.1932887,0.,
 -0.6283091\Quadrupole=-1.5275283,-0.6591017,2.1866301,0.,2.0420256,0.\
 PG=CS [SG(H1N1O3)]\\@


 AND THIS OUR LIFE, EXEMPT FROM PUBLIC HAUNT,
 FINDS TONGUES IN TREES, BOOKS IN THE RUNNING BROOKS,
 SERMONS IN STONES, AND GOOD IN EVERYTHING.
 I WOULD NOT CHANGE IT. -- W. SHAKESPEARE
 AS YOU LIKE IT, ACT II, SCENE 1.
 Job cpu time:       0 days  0 hours  6 minutes 26.9 seconds.
 Elapsed time:       0 days  0 hours  0 minutes 17.8 seconds.
 File lengths (MBytes):  RWF=     22 Int=      0 D2E=      0 Chk=      8 Scr=      1
 Normal termination of Gaussian 16 at Mon Feb 14 22:11:37 2022.
