title                                                                   
SP        RMP2-FC                                                     Aug-CC-pVTZ         
Number of atoms                            I                5
Info1-9                                    I   N=           9
          33          24           0           0           0         110
           1           2           1
Full Title                                 C   N=           1
title       
Route                                      C   N=           4
#p SP mp2/aug-cc-pvtz density=current           
Charge                                     I                0
Multiplicity                               I                1
Number of electrons                        I               32
Number of alpha electrons                  I               16
Number of beta electrons                   I               16
Number of basis functions                  I              207
Number of independent functions            I              207
Number of point charges in /Mol/           I                0
Number of translation vectors              I                0
Atomic numbers                             I   N=           5
           1           8           8           7           8
Nuclear charges                            R   N=           5
  1.00000000E+00  8.00000000E+00  8.00000000E+00  7.00000000E+00  8.00000000E+00
Current cartesian coordinates              R   N=          15
  4.24870034E+00  8.19536684E-01 -5.47116109E-02  3.01925428E+00 -5.37382576E-01
 -4.23030873E-02  7.57115779E-01  1.02269447E+00  4.76081458E-02 -1.25493609E+00
 -8.61552288E-01  7.34781829E-02 -3.20938852E+00  1.66104268E-01 -6.27595172E-02
Number of symbols in /Mol/                 I                0
Force Field                                I                0
Atom Types                                 C   N=           5
                                                            
Int Atom Types                             I   N=           5
           0           0           0           0           0
MM charges                                 R   N=           5
  0.00000000E+00  0.00000000E+00  0.00000000E+00  0.00000000E+00  0.00000000E+00
Integer atomic weights                     I   N=           5
           1          16          16          14          16
Real atomic weights                        R   N=           5
  1.00782504E+00  1.59949146E+01  1.59949146E+01  1.40030740E+01  1.59949146E+01
Atom fragment info                         I   N=           5
           0           0           0           0           0
Atom residue num                           I   N=           5
           0           0           0           0           0
Nuclear spins                              I   N=           5
           1           0           0           2           0
Nuclear ZEff                               R   N=           5
 -1.00000000E+00 -5.60000000E+00 -5.60000000E+00 -4.55000000E+00 -5.60000000E+00
Nuclear ZNuc                               R   N=           5
  1.00000000E+00  8.00000000E+00  8.00000000E+00  7.00000000E+00  8.00000000E+00
Nuclear QMom                               R   N=           5
  0.00000000E+00  0.00000000E+00  0.00000000E+00  2.04400000E+00  0.00000000E+00
Nuclear GFac                               R   N=           5
  2.79284600E+00  0.00000000E+00  0.00000000E+00  4.03761000E-01  0.00000000E+00
MicOpt                                     I   N=           5
          -1          -1          -1          -1          -1
Number of residues                         I                0
Number of secondary structures             I                0
SymInf integers                            I   N=          26
           1           1           1           1           1           0
           0           0           0           0           0           0
           0           0           0           0           0           0
           0           0           0           0           0           0
           0           0
RotTr to input orientation                 R   N=          12
 -7.40530519E-01 -2.83273215E-02 -6.71425434E-01  6.71256219E-01  1.65264549E-02
 -7.41041136E-01  3.20879927E-02 -9.99462075E-01  6.77654647E-03  2.59792875E+00
  5.21280841E-02  3.46036662E+00
Number of contracted shells                I               65
Number of primitive shells                 I              119
Pure/Cartesian d shells                    I                0
Pure/Cartesian f shells                    I                0
Highest angular momentum                   I                3
Largest degree of contraction              I                7
Shell types                                I   N=          65
           0           0           0           0           1           1
           1          -2          -2           0           0           0
           0           0           1           1           1           1
          -2          -2          -2          -3          -3           0
           0           0           0           0           1           1
           1           1          -2          -2          -2          -3
          -3           0           0           0           0           0
           1           1           1           1          -2          -2
          -2          -3          -3           0           0           0
           0           0           1           1           1           1
          -2          -2          -2          -3          -3
Number of primitives per shell             I   N=          65
           3           1           1           1           1           1
           1           1           1           7           6           1
           1           1           3           1           1           1
           1           1           1           1           1           7
           6           1           1           1           3           1
           1           1           1           1           1           1
           1           7           6           1           1           1
           3           1           1           1           1           1
           1           1           1           7           6           1
           1           1           3           1           1           1
           1           1           1           1           1
Shell to atom map                          I   N=          65
           1           1           1           1           1           1
           1           1           1           2           2           2
           2           2           2           2           2           2
           2           2           2           2           2           3
           3           3           3           3           3           3
           3           3           3           3           3           3
           3           4           4           4           4           4
           4           4           4           4           4           4
           4           4           4           5           5           5
           5           5           5           5           5           5
           5           5           5           5           5
Primitive exponents                        R   N=         119
  3.38700000E+01  5.09500000E+00  1.15900000E+00  3.25800000E-01  1.02700000E-01
  2.52600000E-02  1.40700000E+00  3.88000000E-01  1.02000000E-01  1.05700000E+00
  2.47000000E-01  1.53300000E+04  2.29900000E+03  5.22400000E+02  1.47300000E+02
  4.75500000E+01  1.67600000E+01  6.20700000E+00  5.22400000E+02  1.47300000E+02
  4.75500000E+01  1.67600000E+01  6.20700000E+00  6.88200000E-01  1.75200000E+00
  2.38400000E-01  7.37600000E-02  3.44600000E+01  7.74900000E+00  2.28000000E+00
  7.15600000E-01  2.14000000E-01  5.97400000E-02  2.31400000E+00  6.45000000E-01
  2.14000000E-01  1.42800000E+00  5.00000000E-01  1.53300000E+04  2.29900000E+03
  5.22400000E+02  1.47300000E+02  4.75500000E+01  1.67600000E+01  6.20700000E+00
  5.22400000E+02  1.47300000E+02  4.75500000E+01  1.67600000E+01  6.20700000E+00
  6.88200000E-01  1.75200000E+00  2.38400000E-01  7.37600000E-02  3.44600000E+01
  7.74900000E+00  2.28000000E+00  7.15600000E-01  2.14000000E-01  5.97400000E-02
  2.31400000E+00  6.45000000E-01  2.14000000E-01  1.42800000E+00  5.00000000E-01
  1.14200000E+04  1.71200000E+03  3.89300000E+02  1.10000000E+02  3.55700000E+01
  1.25400000E+01  4.64400000E+00  3.89300000E+02  1.10000000E+02  3.55700000E+01
  1.25400000E+01  4.64400000E+00  5.11800000E-01  1.29300000E+00  1.78700000E-01
  5.76000000E-02  2.66300000E+01  5.94800000E+00  1.74200000E+00  5.55000000E-01
  1.72500000E-01  4.91000000E-02  1.65400000E+00  4.69000000E-01  1.51000000E-01
  1.09300000E+00  3.64000000E-01  1.53300000E+04  2.29900000E+03  5.22400000E+02
  1.47300000E+02  4.75500000E+01  1.67600000E+01  6.20700000E+00  5.22400000E+02
  1.47300000E+02  4.75500000E+01  1.67600000E+01  6.20700000E+00  6.88200000E-01
  1.75200000E+00  2.38400000E-01  7.37600000E-02  3.44600000E+01  7.74900000E+00
  2.28000000E+00  7.15600000E-01  2.14000000E-01  5.97400000E-02  2.31400000E+00
  6.45000000E-01  2.14000000E-01  1.42800000E+00  5.00000000E-01
Contraction coefficients                   R   N=         119
  2.54948632E-02  1.90362766E-01  8.52162022E-01  1.00000000E+00  1.00000000E+00
  1.00000000E+00  1.00000000E+00  1.00000000E+00  1.00000000E+00  1.00000000E+00
  1.00000000E+00  5.19808943E-04  4.02025621E-03  2.07128267E-02  8.10105536E-02
  2.35962985E-01  4.42653446E-01  3.57064423E-01 -4.42115008E-05 -1.22591041E-03
 -1.05517725E-02 -6.74452633E-02 -1.71198607E-01  1.07329856E+00  1.00000000E+00
  1.00000000E+00  1.00000000E+00  4.11634896E-02  2.57762836E-01  8.02419274E-01
  1.00000000E+00  1.00000000E+00  1.00000000E+00  1.00000000E+00  1.00000000E+00
  1.00000000E+00  1.00000000E+00  1.00000000E+00  5.19808943E-04  4.02025621E-03
  2.07128267E-02  8.10105536E-02  2.35962985E-01  4.42653446E-01  3.57064423E-01
 -4.42115008E-05 -1.22591041E-03 -1.05517725E-02 -6.74452633E-02 -1.71198607E-01
  1.07329856E+00  1.00000000E+00  1.00000000E+00  1.00000000E+00  4.11634896E-02
  2.57762836E-01  8.02419274E-01  1.00000000E+00  1.00000000E+00  1.00000000E+00
  1.00000000E+00  1.00000000E+00  1.00000000E+00  1.00000000E+00  1.00000000E+00
  5.34563860E-04  4.13435660E-03  2.12335358E-02  8.25006224E-02  2.38138871E-01
  4.42551547E-01  3.53757422E-01 -4.89867350E-05 -1.19527323E-03 -1.03490714E-02
 -6.48680190E-02 -1.71552477E-01  1.07289568E+00  1.00000000E+00  1.00000000E+00
  1.00000000E+00  3.98072123E-02  2.49002660E-01  8.10479727E-01  1.00000000E+00
  1.00000000E+00  1.00000000E+00  1.00000000E+00  1.00000000E+00  1.00000000E+00
  1.00000000E+00  1.00000000E+00  5.19808943E-04  4.02025621E-03  2.07128267E-02
  8.10105536E-02  2.35962985E-01  4.42653446E-01  3.57064423E-01 -4.42115008E-05
 -1.22591041E-03 -1.05517725E-02 -6.74452633E-02 -1.71198607E-01  1.07329856E+00
  1.00000000E+00  1.00000000E+00  1.00000000E+00  4.11634896E-02  2.57762836E-01
  8.02419274E-01  1.00000000E+00  1.00000000E+00  1.00000000E+00  1.00000000E+00
  1.00000000E+00  1.00000000E+00  1.00000000E+00  1.00000000E+00
Coordinates of each shell                  R   N=         195
  4.24870034E+00  8.19536684E-01 -5.47116109E-02  4.24870034E+00  8.19536684E-01
 -5.47116109E-02  4.24870034E+00  8.19536684E-01 -5.47116109E-02  4.24870034E+00
  8.19536684E-01 -5.47116109E-02  4.24870034E+00  8.19536684E-01 -5.47116109E-02
  4.24870034E+00  8.19536684E-01 -5.47116109E-02  4.24870034E+00  8.19536684E-01
 -5.47116109E-02  4.24870034E+00  8.19536684E-01 -5.47116109E-02  4.24870034E+00
  8.19536684E-01 -5.47116109E-02  3.01925428E+00 -5.37382576E-01 -4.23030873E-02
  3.01925428E+00 -5.37382576E-01 -4.23030873E-02  3.01925428E+00 -5.37382576E-01
 -4.23030873E-02  3.01925428E+00 -5.37382576E-01 -4.23030873E-02  3.01925428E+00
 -5.37382576E-01 -4.23030873E-02  3.01925428E+00 -5.37382576E-01 -4.23030873E-02
  3.01925428E+00 -5.37382576E-01 -4.23030873E-02  3.01925428E+00 -5.37382576E-01
 -4.23030873E-02  3.01925428E+00 -5.37382576E-01 -4.23030873E-02  3.01925428E+00
 -5.37382576E-01 -4.23030873E-02  3.01925428E+00 -5.37382576E-01 -4.23030873E-02
  3.01925428E+00 -5.37382576E-01 -4.23030873E-02  3.01925428E+00 -5.37382576E-01
 -4.23030873E-02  3.01925428E+00 -5.37382576E-01 -4.23030873E-02  7.57115779E-01
  1.02269447E+00  4.76081458E-02  7.57115779E-01  1.02269447E+00  4.76081458E-02
  7.57115779E-01  1.02269447E+00  4.76081458E-02  7.57115779E-01  1.02269447E+00
  4.76081458E-02  7.57115779E-01  1.02269447E+00  4.76081458E-02  7.57115779E-01
  1.02269447E+00  4.76081458E-02  7.57115779E-01  1.02269447E+00  4.76081458E-02
  7.57115779E-01  1.02269447E+00  4.76081458E-02  7.57115779E-01  1.02269447E+00
  4.76081458E-02  7.57115779E-01  1.02269447E+00  4.76081458E-02  7.57115779E-01
  1.02269447E+00  4.76081458E-02  7.57115779E-01  1.02269447E+00  4.76081458E-02
  7.57115779E-01  1.02269447E+00  4.76081458E-02  7.57115779E-01  1.02269447E+00
  4.76081458E-02 -1.25493609E+00 -8.61552288E-01  7.34781829E-02 -1.25493609E+00
 -8.61552288E-01  7.34781829E-02 -1.25493609E+00 -8.61552288E-01  7.34781829E-02
 -1.25493609E+00 -8.61552288E-01  7.34781829E-02 -1.25493609E+00 -8.61552288E-01
  7.34781829E-02 -1.25493609E+00 -8.61552288E-01  7.34781829E-02 -1.25493609E+00
 -8.61552288E-01  7.34781829E-02 -1.25493609E+00 -8.61552288E-01  7.34781829E-02
 -1.25493609E+00 -8.61552288E-01  7.34781829E-02 -1.25493609E+00 -8.61552288E-01
  7.34781829E-02 -1.25493609E+00 -8.61552288E-01  7.34781829E-02 -1.25493609E+00
 -8.61552288E-01  7.34781829E-02 -1.25493609E+00 -8.61552288E-01  7.34781829E-02
 -1.25493609E+00 -8.61552288E-01  7.34781829E-02 -3.20938852E+00  1.66104268E-01
 -6.27595172E-02 -3.20938852E+00  1.66104268E-01 -6.27595172E-02 -3.20938852E+00
  1.66104268E-01 -6.27595172E-02 -3.20938852E+00  1.66104268E-01 -6.27595172E-02
 -3.20938852E+00  1.66104268E-01 -6.27595172E-02 -3.20938852E+00  1.66104268E-01
 -6.27595172E-02 -3.20938852E+00  1.66104268E-01 -6.27595172E-02 -3.20938852E+00
  1.66104268E-01 -6.27595172E-02 -3.20938852E+00  1.66104268E-01 -6.27595172E-02
 -3.20938852E+00  1.66104268E-01 -6.27595172E-02 -3.20938852E+00  1.66104268E-01
 -6.27595172E-02 -3.20938852E+00  1.66104268E-01 -6.27595172E-02 -3.20938852E+00
  1.66104268E-01 -6.27595172E-02 -3.20938852E+00  1.66104268E-01 -6.27595172E-02
Num ILSW                                   I              100
ILSW                                       I   N=         100
           0           0           0           0           2           0
           0           0           0           0           0          -1
           5           0           0           0           0           0
           0           0           0           0           0           0
           1           0           0           0           0           0
           0           0      100000           0          -1           0
           0           0           0           0           0           0
           0           0           0           1           0           0
           0 -2000000000           1           0           0           0
           0           0           4          52           0           0
           0           0           0           0           0           0
           0           0           0           5           0           1
           0           0           0           0           0           0
           0           0           0           0           0           0
           0           0           0           0           0           0
           0           0           0           0           0           0
           0           0           0           0
Num RLSW                                   I               52
RLSW                                       R   N=          52
  1.00000000E+00  1.00000000E+00  1.00000000E+00  1.00000000E+00  1.00000000E+00
  0.00000000E+00  0.00000000E+00  1.00000000E+00  0.00000000E+00  0.00000000E+00
  0.00000000E+00  0.00000000E+00  1.00000000E+00  0.00000000E+00  0.00000000E+00
  0.00000000E+00  0.00000000E+00  1.00000000E+00  0.00000000E+00  0.00000000E+00
  0.00000000E+00  0.00000000E+00  1.00000000E+00  0.00000000E+00  0.00000000E+00
  0.00000000E+00  0.00000000E+00  1.00000000E+00  0.00000000E+00  0.00000000E+00
  0.00000000E+00  0.00000000E+00  1.00000000E+00  0.00000000E+00  0.00000000E+00
  0.00000000E+00  0.00000000E+00  0.00000000E+00  1.00000000E+00  1.00000000E+00
  0.00000000E+00  1.00000000E+00  0.00000000E+00  0.00000000E+00  0.00000000E+00
  0.00000000E+00  0.00000000E+00  0.00000000E+00  0.00000000E+00  0.00000000E+00
  0.00000000E+00  0.00000000E+00
MxBond                                     I                2
NBond                                      I   N=           5
           1           2           2           2           1
IBond                                      I   N=          10
           2           0           1           3           2           4
           3           5           4           0
RBond                                      R   N=          10
  1.00000000E+00  0.00000000E+00  1.00000000E+00  1.00000000E+00  1.00000000E+00
  1.00000000E+00  1.00000000E+00  2.00000000E+00  2.00000000E+00  0.00000000E+00
Virial Ratio                               R      2.002351203183893E+00
SCF Energy                                 R     -2.795015527070594E+02
MP2 Energy                                 R     -2.804465302183183E+02
Total Energy                               R     -2.804465302183183E+02
Post-SCF wavefunction norm                 R      1.120204221181802E+00
RMS Density                                R      4.048373690643201E-09
Job Status                                 I                1
Nuclear derivative order                   I                0
External E-field                           R   N=          35
  0.00000000E+00  0.00000000E+00  0.00000000E+00  0.00000000E+00  0.00000000E+00
  0.00000000E+00  0.00000000E+00  0.00000000E+00  0.00000000E+00  0.00000000E+00
  0.00000000E+00  0.00000000E+00  0.00000000E+00  0.00000000E+00  0.00000000E+00
  0.00000000E+00  0.00000000E+00  0.00000000E+00  0.00000000E+00  0.00000000E+00
  0.00000000E+00  0.00000000E+00  0.00000000E+00  0.00000000E+00  0.00000000E+00
  0.00000000E+00  0.00000000E+00  0.00000000E+00  0.00000000E+00  0.00000000E+00
  0.00000000E+00  0.00000000E+00  0.00000000E+00  0.00000000E+00  0.00000000E+00
IOpCl                                      I                0
IROHF                                      I                0
Alpha Orbital Energies                     R   N=         207
 -2.06907171E+01 -2.06844049E+01 -2.06599970E+01 -1.58127607E+01 -1.62405043E+00
 -1.49570639E+00 -1.25438725E+00 -9.48061786E-01 -7.72754520E-01 -7.59151994E-01
 -7.12127366E-01 -6.79010700E-01 -6.20567208E-01 -5.89346034E-01 -4.85220584E-01
 -4.72482286E-01  2.96293513E-02  7.15271560E-02  8.60256416E-02  1.01715703E-01
  1.32182990E-01  1.35597951E-01  1.44100350E-01  1.54546042E-01  1.78039958E-01
  1.94101876E-01  1.99494488E-01  2.06658596E-01  2.20925675E-01  2.34371550E-01
  2.38670466E-01  2.65450365E-01  2.93425033E-01  3.03127112E-01  3.11692613E-01
  3.43397414E-01  3.49906227E-01  3.87195609E-01  4.21181193E-01  4.30653446E-01
  5.25329763E-01  5.31398700E-01  5.58310812E-01  5.81225502E-01  6.26028239E-01
  6.38467576E-01  6.71835219E-01  6.87377243E-01  7.06502050E-01  7.11398808E-01
  7.25145128E-01  7.29861027E-01  7.44768382E-01  7.89714324E-01  7.94383127E-01
  8.07571385E-01  8.15646990E-01  8.30122318E-01  8.68058101E-01  9.07812464E-01
  9.21909382E-01  9.26345137E-01  9.56087713E-01  9.75957421E-01  9.85473048E-01
  1.01608401E+00  1.04944795E+00  1.05529342E+00  1.08545721E+00  1.11684990E+00
  1.13974806E+00  1.19058691E+00  1.22176507E+00  1.23212090E+00  1.33828345E+00
  1.35121291E+00  1.38809861E+00  1.45159740E+00  1.48747301E+00  1.50853105E+00
  1.53808476E+00  1.56514767E+00  1.58181022E+00  1.61323006E+00  1.66294086E+00
  1.66908842E+00  1.70399500E+00  1.79134613E+00  1.82842595E+00  1.83783395E+00
  1.87999306E+00  1.91094443E+00  1.95595578E+00  1.99089619E+00  2.00790924E+00
  2.07751932E+00  2.11983121E+00  2.13057856E+00  2.15141854E+00  2.22557586E+00
  2.26388898E+00  2.26576887E+00  2.28998846E+00  2.31400183E+00  2.34509998E+00
  2.38649366E+00  2.41840924E+00  2.43302201E+00  2.45394319E+00  2.46264481E+00
  2.47761438E+00  2.50266234E+00  2.59047415E+00  2.59644718E+00  2.61855763E+00
  2.62447364E+00  2.63547203E+00  2.66662255E+00  2.75485583E+00  2.82065964E+00
  2.85424043E+00  2.88534670E+00  2.90079164E+00  2.92300655E+00  2.96188844E+00
  3.02694651E+00  3.06914398E+00  3.12187704E+00  3.20512559E+00  3.22566914E+00
  3.31513768E+00  3.34219295E+00  3.51499279E+00  3.64012592E+00  3.83682152E+00
  3.84696636E+00  4.14892481E+00  4.16185893E+00  4.18407419E+00  4.25663729E+00
  4.35183148E+00  4.39352795E+00  4.46433055E+00  4.51920440E+00  4.65846829E+00
  4.70967205E+00  4.80576723E+00  4.82411658E+00  4.82721067E+00  4.89895992E+00
  5.02267270E+00  5.07493897E+00  5.10456885E+00  5.14645159E+00  5.17910079E+00
  5.24371809E+00  5.27287941E+00  5.30560060E+00  5.32912998E+00  5.35519112E+00
  5.60591674E+00  5.67419582E+00  5.76880176E+00  5.82885973E+00  5.95804166E+00
  6.16902862E+00  6.30973916E+00  6.33729973E+00  6.39414525E+00  6.49344977E+00
  6.50539409E+00  6.61453569E+00  6.66733016E+00  6.69872349E+00  6.75670625E+00
  6.76395954E+00  6.83237674E+00  6.89809827E+00  7.01450576E+00  7.05407889E+00
  7.05852813E+00  7.09029709E+00  7.12504312E+00  7.15223362E+00  7.18157654E+00
  7.22533419E+00  7.24194752E+00  7.30790285E+00  7.32620388E+00  7.34823537E+00
  7.39929868E+00  7.43202175E+00  7.48352993E+00  7.59147968E+00  7.62557066E+00
  7.63131871E+00  7.66901070E+00  7.78984104E+00  7.88637694E+00  8.09199952E+00
  8.31310056E+00  8.40870393E+00  8.54339874E+00  1.33931172E+01  1.43904372E+01
  1.51630509E+01  1.61496551E+01
Alpha MO coefficients                      R   N=       42849
  9.19841378E-05 -6.47153127E-04 -7.30809383E-04 -4.76899624E-06 -3.32569975E-05
 -8.79958340E-06  2.31674033E-07  1.55244145E-06  7.58414935E-05 -2.47112199E-06
  9.19330347E-05 -2.27213757E-05 -2.08265707E-06  3.18245845E-05  3.11220519E-06
 -2.36478062E-06  5.85678891E-06  5.36459150E-05 -5.62457195E-06 -1.41287691E-06
 -4.02536791E-06  7.24137754E-05  1.67070686E-04  4.60952509E-03 -2.81932263E-04
  1.56557054E-05  1.56014555E-03  1.82759550E-03  8.97345516E-05 -5.71093122E-05
 -4.09236289E-06 -5.16793061E-04  3.38269739E-04  2.27685843E-05 -4.05170374E-04
  1.29766015E-03  3.07606553E-05 -2.85926391E-04  2.91949015E-04  8.44060120E-06
  2.86983141E-05  2.96453639E-06 -2.60460901E-06 -1.02094565E-05  5.33672863E-05
 -3.76900836E-04 -3.73322596E-05  3.07720503E-05  1.84565107E-04 -7.16232469E-04
 -4.46344353E-04 -1.99532748E-05  2.07095241E-05  5.36170267E-05 -2.33919789E-04
 -5.90903017E-06  7.16360736E-05 -3.71556856E-05  3.14864937E-06 -8.21636106E-06
  3.35998009E-05  1.04103789E-04 -2.35849575E-05  1.86298867E-04 -1.73021045E-04
  3.26564210E-06 -2.69149158E-05  1.65772042E-04  3.15895392E-04  9.76910220E-01
 -9.21714328E-03  4.33191031E-02  2.04739231E-03 -9.19481241E-04  3.92642956E-04
 -1.97852647E-03 -2.98788180E-05 -3.28757054E-04  1.96707029E-03  3.60972224E-05
 -6.27653582E-04 -9.84897514E-04  1.43231030E-05 -1.15547247E-04  7.14951797E-05
  4.90353487E-06  4.64400644E-05  3.09771872E-06 -2.77526348E-06  1.01193860E-05
  3.98501018E-05  7.45816683E-04  5.04943277E-05 -2.15173545E-05 -4.38965715E-04
  1.08383633E-04 -3.58533686E-04 -5.08882138E-06  1.37097805E-06 -4.51451905E-04
  1.90894220E-04 -3.18748892E-06  8.87218356E-06 -6.73456759E-05  2.93881543E-06
 -5.58792128E-06 -1.92397467E-06  4.19093049E-05 -2.10143045E-06  3.11489185E-05
  3.69086703E-06 -2.14737768E-06 -8.92008550E-06 -2.83204567E-05  3.34037054E-04
  3.93590574E-05  4.76411931E-05 -2.64174621E-04 -7.09848252E-04 -1.48998126E-04
 -7.96053705E-05 -6.22018705E-05 -1.89697470E-06  6.37905467E-04  4.09320808E-04
  1.36665127E-05 -9.58339606E-04  1.02640286E-04  2.15285783E-05 -1.16511976E-04
  4.99452913E-05  1.30720539E-05 -1.80406514E-05 -2.74027818E-06 -1.42145982E-06
  5.61914632E-06  3.26973214E-05 -3.29648769E-04 -8.31739789E-06  6.81976749E-06
 -1.17489830E-04  8.30426958E-04 -3.62424525E-05  1.92591992E-05  1.13386469E-05
 -7.95534245E-05 -1.25228744E-04  5.51462566E-07 -8.79992768E-05 -8.40836851E-05
  2.03314401E-06 -5.40524550E-06 -1.08971142E-04  1.05245696E-04  1.25253009E-05
 -8.89604813E-05 -1.25088598E-04 -1.77342383E-05 -1.26508048E-05 -4.08161922E-04
  9.88023639E-05 -2.68565326E-03  1.20340623E-04 -1.28192119E-04 -2.38158250E-04
  1.41715211E-04 -2.31394708E-05 -1.74922512E-05 -2.16136799E-06  1.52530916E-04
  9.06260542E-05  1.59294877E-05  3.14533218E-04  2.89950710E-05 -1.51738346E-05
  1.17063019E-04 -5.49044014E-05 -9.41842323E-06 -3.47254740E-06 -1.35418574E-06
  2.87304415E-07 -4.20395859E-06  1.72764863E-05  1.40104604E-06  1.26378827E-05
  2.62007686E-06  1.08271544E-04 -5.02459568E-05 -1.00511359E-04 -4.58929993E-06
 -8.78891754E-06  2.06131402E-04 -1.08597748E-04  1.37819992E-06  1.04083374E-05
 -1.18254405E-05  1.20835293E-06  2.55739257E-06 -9.78228184E-06  7.79304520E-06
 -2.39685500E-06  4.64336994E-07  5.49439515E-05 -3.05482307E-06 -8.62526907E-06
  5.78466451E-05 -1.07822715E-04  3.81354129E-05 -9.65251640E-04 -4.77658457E-04
 -1.03726224E-05 -8.66991232E-06  2.54903567E-05  3.97703910E-07  1.58547327E-04
  2.15760341E-04 -3.23446811E-06  4.63114135E-05  1.30215221E-04  1.52097405E-06
  2.54239927E-05  3.58699388E-08  5.95786091E-07  1.40570972E-05 -8.04746336E-06
 -2.67347712E-05 -3.79805870E-07  1.22459644E-06  3.61909154E-05 -1.98717759E-07
  1.12380369E-04  8.35745163E-05 -2.74492293E-05  7.27289245E-04  6.35198414E-04
  9.53798487E-06 -3.84279614E-06  5.78605157E-08 -4.91654304E-05  5.38931199E-05
 -1.54774847E-06  7.94656386E-04  5.13389021E-04  2.47849577E-05  5.00679684E-05
  6.06793302E-05  1.24690886E-05 -2.29113114E-06  9.86570996E-07  6.88191934E-08
 -5.60446312E-06 -1.54028870E-06 -3.46838827E-05 -5.65918951E-06 -3.57274651E-07
  7.26589065E-05  4.15246479E-05 -1.99525226E-05 -1.89489642E-05  1.92539222E-06
 -2.29096744E-04  2.02943380E-04  4.85817897E-07  1.11173695E-05 -4.88774739E-07
 -4.77930877E-07 -6.51622682E-07 -1.80708034E-05  3.38303744E-06 -3.54024992E-06
 -5.56157621E-05 -6.83677727E-06  8.31187859E-06 -7.74302557E-07  4.46521815E-05
  6.62187881E-05  2.72394028E-03  3.73316465E-05  9.62762351E-05 -7.63399769E-05
 -4.57876710E-04  1.53601602E-05  7.96295863E-06 -6.98376077E-07 -8.35029701E-05
 -6.34194501E-06  2.25353410E-06  8.10187265E-05 -2.86400448E-04 -2.63941131E-05
 -1.84152362E-04  5.78078598E-05 -7.65832539E-06 -8.66554647E-06  2.13773985E-06
 -6.60952315E-08  2.54016795E-05 -1.54619170E-05  4.69394692E-06 -7.77551060E-06
  1.10647555E-07 -7.84841527E-05  9.82612782E-05 -5.35215085E-06 -1.20206091E-05
  2.07026776E-05 -2.58403109E-04  1.50136311E-04 -1.70042300E-06  2.23328400E-06
 -2.43289982E-06 -1.54090998E-06 -5.09508399E-07 -1.31738067E-05  2.96897936E-06
  3.93271529E-07 -3.47694369E-05  3.04633805E-05  1.18020800E-05  7.26728618E-06
  2.01265670E-04  9.01924061E-06  2.58552414E-04  1.46430196E-03 -7.80352376E-05
 -1.53732514E-03  3.98606313E-04 -1.15816609E-04  8.57577876E-05 -1.02769771E-05
 -1.91562512E-03  9.15802301E-04 -1.21637999E-04  1.29213060E-03 -4.41769851E-06
  3.69793610E-05 -1.03787857E-04  1.46102823E-04 -7.28517945E-06 -1.21851683E-04
  2.60317287E-05 -1.18547352E-05  1.60494386E-04 -2.04176747E-04 -4.36068638E-04
  9.70880568E-05 -6.05298237E-05  1.99328519E-04 -8.73727331E-04  9.93617828E-06
 -2.76128595E-05  4.37143126E-06 -2.13476050E-04  2.88326472E-04 -3.33851898E-06
  8.10431488E-06  1.29586009E-05  3.28423251E-06 -1.04187688E-06  6.08930981E-06
 -2.22103154E-05  3.93488528E-05  8.61025635E-05 -1.52777186E-04 -1.92051146E-05
  4.17036267E-05  1.18683664E-04  2.12125180E-04  9.76648808E-01 -9.85003367E-03
  4.35676223E-02  4.50402669E-03 -4.44752080E-04  2.00859382E-03 -8.88375832E-04
  1.38787708E-04 -2.27105628E-03  9.30777146E-04 -1.42604597E-04  9.13116145E-04
 -6.78616741E-04  9.33878756E-05 -2.13507535E-05 -3.60820828E-05 -4.58280190E-06
 -2.30827497E-04  2.12069787E-05 -2.30643638E-05  6.06088156E-05 -8.79425543E-05
  3.86303439E-04 -9.13420561E-05  2.23669868E-05 -6.41681525E-04  6.72703922E-04
 -1.50436237E-04  3.38792244E-05 -2.52571762E-05  9.07825799E-05 -2.39180055E-04
  7.99798956E-06  5.14598935E-05 -1.60999745E-05 -3.59161747E-06  7.38922196E-06
 -5.16830646E-06  2.49170307E-05  2.03621136E-05  1.14568310E-04 -7.44434738E-05
 -2.29971582E-05  1.86995146E-05 -6.88319420E-05  2.24402344E-04  4.74858939E-04
  2.05790932E-03  1.17259876E-04  1.49471745E-05 -1.79918208E-04 -1.73638161E-04
  2.72506175E-06 -6.69488601E-04 -1.09009874E-03 -3.12209497E-06  4.62748800E-05
 -4.55986142E-04 -1.29191528E-05 -2.51526582E-06 -2.41985157E-06  1.26463176E-06
  3.67882755E-05 -6.82252176E-05 -1.60353775E-04  5.01354942E-06 -4.25410617E-06
 -1.78289121E-04  5.06993177E-04  9.76829947E-01 -9.16333226E-03  4.34496642E-02
  1.69123740E-04 -1.13796906E-03 -3.94902784E-04  2.08842827E-03  5.00109408E-05
  4.98351847E-04 -1.96882890E-03 -4.91231299E-05 -9.73797771E-04 -3.54524086E-04
  2.12513635E-05  2.69746039E-05 -5.80484081E-05 -3.57686369E-06  2.93112132E-05
  5.47477570E-06 -3.59159273E-06 -3.70211030E-05  1.12025861E-04  7.55613412E-04
  4.85833793E-05 -2.25972515E-05 -2.83320479E-04  1.24351030E-04 -2.66684348E-04
 -1.04982572E-05  1.18729041E-05  1.71104928E-04 -1.24149593E-04  5.25255353E-06
 -5.04976646E-05  3.90483387E-05 -1.59248029E-06  3.41691936E-06  2.95299049E-06
 -2.09672962E-05 -5.91404749E-07  7.24658724E-05  9.88347911E-05 -2.19208775E-07
  1.42648656E-05 -2.25237989E-07 -2.72675116E-04 -4.70174725E-03 -2.10810879E-04