title                                                                   
SP        RMP2-FC                                                     Aug-CC-pVTZ         
Number of atoms                            I                5
Info1-9                                    I   N=           9
          33          24           0           0           0         110
           1           2           1
Full Title                                 C   N=           1
title       
Route                                      C   N=           4
#p SP mp2/aug-cc-pvtz density=current           
Charge                                     I                0
Multiplicity                               I                1
Number of electrons                        I               32
Number of alpha electrons                  I               16
Number of beta electrons                   I               16
Number of basis functions                  I              207
Number of independent functions            I              207
Number of point charges in /Mol/           I                0
Number of translation vectors              I                0
Atomic numbers                             I   N=           5
           1           8           8           7           8
Nuclear charges                            R   N=           5
  1.00000000E+00  8.00000000E+00  8.00000000E+00  7.00000000E+00  8.00000000E+00
Current cartesian coordinates              R   N=          15
  2.93574232E+00  3.17472664E+00 -1.19961783E-31  2.74816699E+00  1.35326104E+00
 -9.37913972E-32 -1.86684453E-17  1.27096138E+00 -1.92507991E-32 -5.06257016E-01
 -1.43885626E+00  1.04399599E-32 -2.67215989E+00 -1.76206402E+00  9.80748451E-32
Number of symbols in /Mol/                 I                0
Force Field                                I                0
Atom Types                                 C   N=           5
                                                            
Int Atom Types                             I   N=           5
           0           0           0           0           0
MM charges                                 R   N=           5
  0.00000000E+00  0.00000000E+00  0.00000000E+00  0.00000000E+00  0.00000000E+00
Integer atomic weights                     I   N=           5
           1          16          16          14          16
Real atomic weights                        R   N=           5
  1.00782504E+00  1.59949146E+01  1.59949146E+01  1.40030740E+01  1.59949146E+01
Atom fragment info                         I   N=           5
           0           0           0           0           0
Atom residue num                           I   N=           5
           0           0           0           0           0
Nuclear spins                              I   N=           5
           1           0           0           2           0
Nuclear ZEff                               R   N=           5
 -1.00000000E+00 -5.60000000E+00 -5.60000000E+00 -4.55000000E+00 -5.60000000E+00
Nuclear ZNuc                               R   N=           5
  1.00000000E+00  8.00000000E+00  8.00000000E+00  7.00000000E+00  8.00000000E+00
Nuclear QMom                               R   N=           5
  0.00000000E+00  0.00000000E+00  0.00000000E+00  2.04400000E+00  0.00000000E+00
Nuclear GFac                               R   N=           5
  2.79284600E+00  0.00000000E+00  0.00000000E+00  4.03761000E-01  0.00000000E+00
MicOpt                                     I   N=           5
          -1          -1          -1          -1          -1
Number of residues                         I                0
Number of secondary structures             I                0
SymInf integers                            I   N=          26
           1           2           1           1           1           1
           1          -1           0           0           0           0
           0           0           0           0           0           0
           0           0           0           0           0           0
           0           0
RotTr to input orientation                 R   N=          12
 -9.94739319E-01 -9.86328482E-17 -1.02438696E-01  1.02438696E-01 -7.25889736E-17
 -9.94739319E-01  9.06780525E-17 -1.00000000E+00  8.23109265E-17  2.59508346E+00
  0.00000000E+00  3.45875903E+00
Number of contracted shells                I               65
Number of primitive shells                 I              119
Pure/Cartesian d shells                    I                0
Pure/Cartesian f shells                    I                0
Highest angular momentum                   I                3
Largest degree of contraction              I                7
Shell types                                I   N=          65
           0           0           0           0           1           1
           1          -2          -2           0           0           0
           0           0           1           1           1           1
          -2          -2          -2          -3          -3           0
           0           0           0           0           1           1
           1           1          -2          -2          -2          -3
          -3           0           0           0           0           0
           1           1           1           1          -2          -2
          -2          -3          -3           0           0           0
           0           0           1           1           1           1
          -2          -2          -2          -3          -3
Number of primitives per shell             I   N=          65
           3           1           1           1           1           1
           1           1           1           7           6           1
           1           1           3           1           1           1
           1           1           1           1           1           7
           6           1           1           1           3           1
           1           1           1           1           1           1
           1           7           6           1           1           1
           3           1           1           1           1           1
           1           1           1           7           6           1
           1           1           3           1           1           1
           1           1           1           1           1
Shell to atom map                          I   N=          65
           1           1           1           1           1           1
           1           1           1           2           2           2
           2           2           2           2           2           2
           2           2           2           2           2           3
           3           3           3           3           3           3
           3           3           3           3           3           3
           3           4           4           4           4           4
           4           4           4           4           4           4
           4           4           4           5           5           5
           5           5           5           5           5           5
           5           5           5           5           5
Primitive exponents                        R   N=         119
  3.38700000E+01  5.09500000E+00  1.15900000E+00  3.25800000E-01  1.02700000E-01
  2.52600000E-02  1.40700000E+00  3.88000000E-01  1.02000000E-01  1.05700000E+00
  2.47000000E-01  1.53300000E+04  2.29900000E+03  5.22400000E+02  1.47300000E+02
  4.75500000E+01  1.67600000E+01  6.20700000E+00  5.22400000E+02  1.47300000E+02
  4.75500000E+01  1.67600000E+01  6.20700000E+00  6.88200000E-01  1.75200000E+00
  2.38400000E-01  7.37600000E-02  3.44600000E+01  7.74900000E+00  2.28000000E+00
  7.15600000E-01  2.14000000E-01  5.97400000E-02  2.31400000E+00  6.45000000E-01
  2.14000000E-01  1.42800000E+00  5.00000000E-01  1.53300000E+04  2.29900000E+03
  5.22400000E+02  1.47300000E+02  4.75500000E+01  1.67600000E+01  6.20700000E+00
  5.22400000E+02  1.47300000E+02  4.75500000E+01  1.67600000E+01  6.20700000E+00
  6.88200000E-01  1.75200000E+00  2.38400000E-01  7.37600000E-02  3.44600000E+01
  7.74900000E+00  2.28000000E+00  7.15600000E-01  2.14000000E-01  5.97400000E-02
  2.31400000E+00  6.45000000E-01  2.14000000E-01  1.42800000E+00  5.00000000E-01
  1.14200000E+04  1.71200000E+03  3.89300000E+02  1.10000000E+02  3.55700000E+01
  1.25400000E+01  4.64400000E+00  3.89300000E+02  1.10000000E+02  3.55700000E+01
  1.25400000E+01  4.64400000E+00  5.11800000E-01  1.29300000E+00  1.78700000E-01
  5.76000000E-02  2.66300000E+01  5.94800000E+00  1.74200000E+00  5.55000000E-01
  1.72500000E-01  4.91000000E-02  1.65400000E+00  4.69000000E-01  1.51000000E-01
  1.09300000E+00  3.64000000E-01  1.53300000E+04  2.29900000E+03  5.22400000E+02
  1.47300000E+02  4.75500000E+01  1.67600000E+01  6.20700000E+00  5.22400000E+02
  1.47300000E+02  4.75500000E+01  1.67600000E+01  6.20700000E+00  6.88200000E-01
  1.75200000E+00  2.38400000E-01  7.37600000E-02  3.44600000E+01  7.74900000E+00
  2.28000000E+00  7.15600000E-01  2.14000000E-01  5.97400000E-02  2.31400000E+00
  6.45000000E-01  2.14000000E-01  1.42800000E+00  5.00000000E-01
Contraction coefficients                   R   N=         119
  2.54948632E-02  1.90362766E-01  8.52162022E-01  1.00000000E+00  1.00000000E+00
  1.00000000E+00  1.00000000E+00  1.00000000E+00  1.00000000E+00  1.00000000E+00
  1.00000000E+00  5.19808943E-04  4.02025621E-03  2.07128267E-02  8.10105536E-02
  2.35962985E-01  4.42653446E-01  3.57064423E-01 -4.42115008E-05 -1.22591041E-03
 -1.05517725E-02 -6.74452633E-02 -1.71198607E-01  1.07329856E+00  1.00000000E+00
  1.00000000E+00  1.00000000E+00  4.11634896E-02  2.57762836E-01  8.02419274E-01
  1.00000000E+00  1.00000000E+00  1.00000000E+00  1.00000000E+00  1.00000000E+00
  1.00000000E+00  1.00000000E+00  1.00000000E+00  5.19808943E-04  4.02025621E-03
  2.07128267E-02  8.10105536E-02  2.35962985E-01  4.42653446E-01  3.57064423E-01
 -4.42115008E-05 -1.22591041E-03 -1.05517725E-02 -6.74452633E-02 -1.71198607E-01
  1.07329856E+00  1.00000000E+00  1.00000000E+00  1.00000000E+00  4.11634896E-02
  2.57762836E-01  8.02419274E-01  1.00000000E+00  1.00000000E+00  1.00000000E+00
  1.00000000E+00  1.00000000E+00  1.00000000E+00  1.00000000E+00  1.00000000E+00
  5.34563860E-04  4.13435660E-03  2.12335358E-02  8.25006224E-02  2.38138871E-01
  4.42551547E-01  3.53757422E-01 -4.89867350E-05 -1.19527323E-03 -1.03490714E-02
 -6.48680190E-02 -1.71552477E-01  1.07289568E+00  1.00000000E+00  1.00000000E+00
  1.00000000E+00  3.98072123E-02  2.49002660E-01  8.10479727E-01  1.00000000E+00
  1.00000000E+00  1.00000000E+00  1.00000000E+00  1.00000000E+00  1.00000000E+00
  1.00000000E+00  1.00000000E+00  5.19808943E-04  4.02025621E-03  2.07128267E-02
  8.10105536E-02  2.35962985E-01  4.42653446E-01  3.57064423E-01 -4.42115008E-05
 -1.22591041E-03 -1.05517725E-02 -6.74452633E-02 -1.71198607E-01  1.07329856E+00
  1.00000000E+00  1.00000000E+00  1.00000000E+00  4.11634896E-02  2.57762836E-01
  8.02419274E-01  1.00000000E+00  1.00000000E+00  1.00000000E+00  1.00000000E+00
  1.00000000E+00  1.00000000E+00  1.00000000E+00  1.00000000E+00
Coordinates of each shell                  R   N=         195
  2.93574232E+00  3.17472664E+00 -3.94091573E-32  2.93574232E+00  3.17472664E+00
 -3.94091573E-32  2.93574232E+00  3.17472664E+00 -3.94091573E-32  2.93574232E+00
  3.17472664E+00 -3.94091573E-32  2.93574232E+00  3.17472664E+00 -3.94091573E-32
  2.93574232E+00  3.17472664E+00 -3.94091573E-32  2.93574232E+00  3.17472664E+00
 -3.94091573E-32  2.93574232E+00  3.17472664E+00 -3.94091573E-32  2.93574232E+00
  3.17472664E+00 -3.94091573E-32  2.74816699E+00  1.35326104E+00 -2.69681197E-32
  2.74816699E+00  1.35326104E+00 -2.69681197E-32  2.74816699E+00  1.35326104E+00
 -2.69681197E-32  2.74816699E+00  1.35326104E+00 -2.69681197E-32  2.74816699E+00
  1.35326104E+00 -2.69681197E-32  2.74816699E+00  1.35326104E+00 -2.69681197E-32
  2.74816699E+00  1.35326104E+00 -2.69681197E-32  2.74816699E+00  1.35326104E+00
 -2.69681197E-32  2.74816699E+00  1.35326104E+00 -2.69681197E-32  2.74816699E+00
  1.35326104E+00 -2.69681197E-32  2.74816699E+00  1.35326104E+00 -2.69681197E-32
  2.74816699E+00  1.35326104E+00 -2.69681197E-32  2.74816699E+00  1.35326104E+00
 -2.69681197E-32  2.74816699E+00  1.35326104E+00 -2.69681197E-32  7.39310522E-18
  1.27096138E+00 -7.79169787E-33  7.39310522E-18  1.27096138E+00 -7.79169787E-33
  7.39310522E-18  1.27096138E+00 -7.79169787E-33  7.39310522E-18  1.27096138E+00
 -7.79169787E-33  7.39310522E-18  1.27096138E+00 -7.79169787E-33  7.39310522E-18
  1.27096138E+00 -7.79169787E-33  7.39310522E-18  1.27096138E+00 -7.79169787E-33
  7.39310522E-18  1.27096138E+00 -7.79169787E-33  7.39310522E-18  1.27096138E+00
 -7.79169787E-33  7.39310522E-18  1.27096138E+00 -7.79169787E-33  7.39310522E-18
  1.27096138E+00 -7.79169787E-33  7.39310522E-18  1.27096138E+00 -7.79169787E-33
  7.39310522E-18  1.27096138E+00 -7.79169787E-33  7.39310522E-18  1.27096138E+00
 -7.79169787E-33 -5.06257016E-01 -1.43885626E+00  1.22606501E-32 -5.06257016E-01
 -1.43885626E+00  1.22606501E-32 -5.06257016E-01 -1.43885626E+00  1.22606501E-32
 -5.06257016E-01 -1.43885626E+00  1.22606501E-32 -5.06257016E-01 -1.43885626E+00
  1.22606501E-32 -5.06257016E-01 -1.43885626E+00  1.22606501E-32 -5.06257016E-01
 -1.43885626E+00  1.22606501E-32 -5.06257016E-01 -1.43885626E+00  1.22606501E-32
 -5.06257016E-01 -1.43885626E+00  1.22606501E-32 -5.06257016E-01 -1.43885626E+00
  1.22606501E-32 -5.06257016E-01 -1.43885626E+00  1.22606501E-32 -5.06257016E-01
 -1.43885626E+00  1.22606501E-32 -5.06257016E-01 -1.43885626E+00  1.22606501E-32
 -5.06257016E-01 -1.43885626E+00  1.22606501E-32 -2.67215989E+00 -1.76206402E+00
  2.89578933E-32 -2.67215989E+00 -1.76206402E+00  2.89578933E-32 -2.67215989E+00
 -1.76206402E+00  2.89578933E-32 -2.67215989E+00 -1.76206402E+00  2.89578933E-32
 -2.67215989E+00 -1.76206402E+00  2.89578933E-32 -2.67215989E+00 -1.76206402E+00
  2.89578933E-32 -2.67215989E+00 -1.76206402E+00  2.89578933E-32 -2.67215989E+00
 -1.76206402E+00  2.89578933E-32 -2.67215989E+00 -1.76206402E+00  2.89578933E-32
 -2.67215989E+00 -1.76206402E+00  2.89578933E-32 -2.67215989E+00 -1.76206402E+00
  2.89578933E-32 -2.67215989E+00 -1.76206402E+00  2.89578933E-32 -2.67215989E+00
 -1.76206402E+00  2.89578933E-32 -2.67215989E+00 -1.76206402E+00  2.89578933E-32
Num ILSW                                   I              100
ILSW                                       I   N=         100
           0           0           0           0           2           0
           0           0           0           0           0          -1
           5           0           0           0           0           0
           0           0           0           0           0           0
           1           0           0           0           0           0
           0           0      100000           0          -1           0
           0           0           0           0           0           0
           0           0           0           1           0           0
           0 -2000000000           1           0           0           0
           0           0           4          52           0           0
           0           0           0           0           0           0
           0           0           0           5           0           1
           0           0           0           0           0           0
           0           0           0           0           0           0
           0           0           0           0           0           0
           0           0           0           0           0           0
           0           0           0           0
Num RLSW                                   I               52
RLSW                                       R   N=          52
  1.00000000E+00  1.00000000E+00  1.00000000E+00  1.00000000E+00  1.00000000E+00
  0.00000000E+00  0.00000000E+00  1.00000000E+00  0.00000000E+00  0.00000000E+00
  0.00000000E+00  0.00000000E+00  1.00000000E+00  0.00000000E+00  0.00000000E+00
  0.00000000E+00  0.00000000E+00  1.00000000E+00  0.00000000E+00  0.00000000E+00
  0.00000000E+00  0.00000000E+00  1.00000000E+00  0.00000000E+00  0.00000000E+00
  0.00000000E+00  0.00000000E+00  1.00000000E+00  0.00000000E+00  0.00000000E+00
  0.00000000E+00  0.00000000E+00  1.00000000E+00  0.00000000E+00  0.00000000E+00
  0.00000000E+00  0.00000000E+00  0.00000000E+00  1.00000000E+00  1.00000000E+00
  0.00000000E+00  1.00000000E+00  0.00000000E+00  0.00000000E+00  0.00000000E+00
  0.00000000E+00  0.00000000E+00  0.00000000E+00  0.00000000E+00  0.00000000E+00
  0.00000000E+00  0.00000000E+00
MxBond                                     I                2
NBond                                      I   N=           5
           1           2           2           2           1
IBond                                      I   N=          10
           2           0           1           3           2           4
           3           5           4           0
RBond                                      R   N=          10
  1.00000000E+00  0.00000000E+00  1.00000000E+00  1.00000000E+00  1.00000000E+00
  1.00000000E+00  1.00000000E+00  2.00000000E+00  2.00000000E+00  0.00000000E+00
Virial Ratio                               R      2.002145962769728E+00
SCF Energy                                 R     -2.795034860077323E+02
MP2 Energy                                 R     -2.804465145071966E+02
Total Energy                               R     -2.804465145071966E+02
Post-SCF wavefunction norm                 R      1.119399098111158E+00
RMS Density                                R      3.480173875538743E-09
Job Status                                 I                1
Nuclear derivative order                   I                0
External E-field                           R   N=          35
  0.00000000E+00  0.00000000E+00  0.00000000E+00  0.00000000E+00  0.00000000E+00
  0.00000000E+00  0.00000000E+00  0.00000000E+00  0.00000000E+00  0.00000000E+00
  0.00000000E+00  0.00000000E+00  0.00000000E+00  0.00000000E+00  0.00000000E+00
  0.00000000E+00  0.00000000E+00  0.00000000E+00  0.00000000E+00  0.00000000E+00
  0.00000000E+00  0.00000000E+00  0.00000000E+00  0.00000000E+00  0.00000000E+00
  0.00000000E+00  0.00000000E+00  0.00000000E+00  0.00000000E+00  0.00000000E+00
  0.00000000E+00  0.00000000E+00  0.00000000E+00  0.00000000E+00  0.00000000E+00
IOpCl                                      I                0
IROHF                                      I                0
Alpha Orbital Energies                     R   N=         207
 -2.06880640E+01 -2.06848016E+01 -2.06584450E+01 -1.58110958E+01 -1.63392040E+00
 -1.49577964E+00 -1.25319799E+00 -9.46460598E-01 -7.74284084E-01 -7.62357159E-01
 -7.14426277E-01 -6.80724161E-01 -6.22739501E-01 -5.88621865E-01 -4.84192448E-01
 -4.70152752E-01  2.99531142E-02  7.53471468E-02  8.57370213E-02  1.01716558E-01
  1.33729910E-01  1.34113508E-01  1.44336521E-01  1.54822948E-01  1.78479398E-01
  1.94032789E-01  2.00259733E-01  2.06375186E-01  2.21199153E-01  2.36452710E-01
  2.37467478E-01  2.66186979E-01  2.94649842E-01  3.04360114E-01  3.11022709E-01
  3.43297250E-01  3.50147576E-01  3.87684930E-01  4.22568058E-01  4.31817281E-01
  5.27092245E-01  5.30761255E-01  5.59120593E-01  5.81904642E-01  6.32152089E-01
  6.37973654E-01  6.70777142E-01  6.85439345E-01  7.06521874E-01  7.11481150E-01
  7.24530382E-01  7.30126652E-01  7.44661062E-01  7.92197385E-01  7.92806564E-01
  8.09937935E-01  8.13808725E-01  8.33788420E-01  8.69233664E-01  9.09406748E-01
  9.23056169E-01  9.27424453E-01  9.57262890E-01  9.80083706E-01  9.85669555E-01
  1.01705704E+00  1.05279092E+00  1.05597343E+00  1.08497297E+00  1.11934011E+00
  1.14234917E+00  1.19025300E+00  1.22248032E+00  1.23446298E+00  1.33974894E+00
  1.35123954E+00  1.38817597E+00  1.45413771E+00  1.48839862E+00  1.51050380E+00
  1.53834121E+00  1.56688551E+00  1.57947606E+00  1.61416387E+00  1.66684301E+00
  1.67040585E+00  1.70286981E+00  1.79375731E+00  1.83022127E+00  1.83511473E+00
  1.88155157E+00  1.90964452E+00  1.95301746E+00  1.99530713E+00  2.00584361E+00
  2.07842905E+00  2.12135951E+00  2.13324371E+00  2.15123551E+00  2.22508035E+00
  2.26540018E+00  2.26596699E+00  2.29069263E+00  2.31579374E+00  2.34788796E+00
  2.38722699E+00  2.42717556E+00  2.43171408E+00  2.45455949E+00  2.46441810E+00
  2.47865500E+00  2.50355446E+00  2.59120056E+00  2.59918717E+00  2.62320828E+00
  2.62948027E+00  2.63629027E+00  2.67140741E+00  2.76220137E+00  2.83013446E+00
  2.86020015E+00  2.89004616E+00  2.89758432E+00  2.92885131E+00  2.96112452E+00
  3.02787599E+00  3.06626441E+00  3.12574782E+00  3.20577157E+00  3.22995131E+00
  3.31904432E+00  3.34364058E+00  3.52221605E+00  3.64443292E+00  3.83996579E+00
  3.84804544E+00  4.15023347E+00  4.16485546E+00  4.18577303E+00  4.28619207E+00
  4.35317950E+00  4.39517520E+00  4.46656323E+00  4.52186133E+00  4.67676406E+00
  4.71288616E+00  4.81079641E+00  4.82730040E+00  4.83242153E+00  4.89521229E+00
  5.02138402E+00  5.07863998E+00  5.10817104E+00  5.13830522E+00  5.18265073E+00
  5.24692976E+00  5.27319956E+00  5.30668628E+00  5.33162919E+00  5.36787750E+00
  5.60853423E+00  5.69371641E+00  5.78147348E+00  5.83448189E+00  5.95450139E+00
  6.17184833E+00  6.31109004E+00  6.33960187E+00  6.39622390E+00  6.49363337E+00
  6.50562577E+00  6.61555353E+00  6.66962066E+00  6.70452574E+00  6.75976209E+00
  6.76561985E+00  6.84004353E+00  6.90273296E+00  7.01759721E+00  7.05920964E+00
  7.06008406E+00  7.09196902E+00  7.13055359E+00  7.15301179E+00  7.18336141E+00
  7.23390815E+00  7.24436093E+00  7.31305676E+00  7.34686827E+00  7.35655411E+00
  7.41299909E+00  7.43363886E+00  7.48614959E+00  7.61065703E+00  7.63475971E+00
  7.64503637E+00  7.66979935E+00  7.79954703E+00  7.90676001E+00  8.09848867E+00
  8.31970533E+00  8.41073328E+00  8.54725743E+00  1.34124466E+01  1.44884112E+01
  1.51673933E+01  1.65264433E+01
Alpha MO coefficients                      R   N=       42849
  9.24027485E-05 -6.25530902E-04 -7.28751939E-04 -3.63291215E-06 -2.14194963E-05
 -2.74116595E-05  0.00000000E+00 -4.30456544E-05  5.79055462E-05  0.00000000E+00
  8.92535134E-05  3.72752343E-05  0.00000000E+00  3.19397391E-05  0.00000000E+00
  0.00000000E+00 -4.98649208E-05  2.10928921E-05 -3.86432993E-06  0.00000000E+00
  0.00000000E+00 -1.38557613E-04  1.17898498E-04  4.78057547E-03 -2.83510705E-04
  2.32934965E-05  1.54296119E-03  1.82570008E-03  1.06162591E-04  7.36566974E-06
  0.00000000E+00 -6.17156979E-04 -3.37504587E-05  0.00000000E+00 -1.10082345E-03
  7.82007755E-04  0.00000000E+00 -4.04619693E-04  6.22682549E-05  0.00000000E+00
  2.88723466E-05  0.00000000E+00  0.00000000E+00 -5.43049222E-05  6.43467621E-06
 -3.78104836E-04  0.00000000E+00  0.00000000E+00  7.41673007E-04 -3.95903107E-05
 -4.46807281E-04  0.00000000E+00  0.00000000E+00  2.45901976E-04 -1.23186038E-05
  0.00000000E+00  8.01752113E-05  1.23524123E-05  0.00000000E+00  0.00000000E+00
 -1.09783841E-04 -1.81844630E-06  0.00000000E+00  2.55621355E-04 -2.81452415E-05
  0.00000000E+00  0.00000000E+00 -3.52399752E-04  5.49987602E-05  9.76895368E-01
 -9.21873943E-03  4.33231782E-02  2.07500262E-03 -9.03810906E-04  1.49020993E-03
 -1.34309588E-03  0.00000000E+00 -1.43393413E-03  1.37149002E-03  0.00000000E+00
  8.18362062E-05 -1.16214518E-03  0.00000000E+00 -1.32935491E-04 -1.22331961E-05
  0.00000000E+00  4.59622911E-05  0.00000000E+00  0.00000000E+00 -3.59070228E-05
  2.23311120E-05  7.44592727E-04  0.00000000E+00  0.00000000E+00 -2.42387669E-04
 -3.86708050E-04 -3.59778052E-04  0.00000000E+00  0.00000000E+00 -3.12284628E-04
 -3.68454359E-04  0.00000000E+00  4.74537941E-05 -4.84201749E-05  0.00000000E+00
  0.00000000E+00 -3.90060027E-05 -1.48240070E-05  0.00000000E+00  2.33053737E-05
  2.13666677E-05  0.00000000E+00  0.00000000E+00 -3.07148091E-04 -1.34641437E-04
  3.69258692E-05  3.36432515E-05 -2.64123328E-04 -7.36219251E-04 -1.68015452E-04
 -2.62486255E-05 -9.60072177E-05  0.00000000E+00  2.82331140E-04  7.03925643E-04
  0.00000000E+00 -8.52465894E-04 -5.09822052E-04  0.00000000E+00 -1.27051604E-04
 -3.27078621E-05  0.00000000E+00 -1.78434886E-05  0.00000000E+00  0.00000000E+00
 -3.08539606E-05  1.52635717E-05 -3.24278247E-04  0.00000000E+00  0.00000000E+00
 -8.23221183E-04  1.31525832E-04 -3.24963758E-05  0.00000000E+00  0.00000000E+00
  1.04040525E-04 -1.17628666E-04  0.00000000E+00 -2.05971730E-05 -1.19390618E-04
  0.00000000E+00  0.00000000E+00 -6.37642849E-05 -1.35259876E-04  0.00000000E+00
  3.31927939E-06 -1.49981768E-04  0.00000000E+00  0.00000000E+00  4.25358701E-05
 -4.16942662E-04 -5.30480986E-03  1.49863179E-04 -2.44029802E-04 -2.51841547E-04
  1.54469314E-04 -1.43714933E-05 -2.85247917E-05  0.00000000E+00  7.79530860E-05
  1.64582454E-04  0.00000000E+00  2.49966007E-04  2.11291221E-04  0.00000000E+00
  1.31640333E-04  2.71193471E-05  0.00000000E+00 -2.46070336E-06  0.00000000E+00
  0.00000000E+00 -1.89629417E-05  1.63954415E-06  1.97603511E-07  0.00000000E+00
  0.00000000E+00  8.75057069E-05  8.49238548E-05 -1.03897685E-04  0.00000000E+00
  0.00000000E+00  1.71196533E-04  1.66961883E-04  0.00000000E+00  1.56874017E-05
 -2.93780498E-06  0.00000000E+00  0.00000000E+00 -3.03699835E-06 -1.23683287E-05
  0.00000000E+00 -3.43070663E-05  4.56575138E-05  0.00000000E+00  0.00000000E+00
  8.53748387E-05  8.87009614E-05  4.05596346E-05 -9.79977056E-04 -4.70810125E-04
 -8.01834761E-06 -2.17384024E-05  1.52221433E-05  0.00000000E+00  4.20955171E-06
  2.70249716E-04  0.00000000E+00 -3.78764505E-05  1.29135568E-04  0.00000000E+00
  2.59396562E-05  0.00000000E+00  0.00000000E+00  1.18522562E-05  1.01667853E-05
 -2.77809470E-05  0.00000000E+00  0.00000000E+00  1.19998166E-05  3.28330435E-05
  1.19951370E-04  8.37434920E-05 -2.83684844E-05  7.56503671E-04  6.44161760E-04
  1.12714584E-05  2.08734950E-06  0.00000000E+00 -7.91170112E-05  1.71675807E-05
  0.00000000E+00  3.17464252E-04  9.03776305E-04  0.00000000E+00 -2.02876015E-06
  7.44595701E-05  0.00000000E+00 -2.34713995E-06  0.00000000E+00  0.00000000E+00
 -7.18759830E-07 -5.42368814E-06 -3.67854114E-05  0.00000000E+00  0.00000000E+00
 -1.15024554E-05  7.84605516E-05 -2.71839902E-05  0.00000000E+00  0.00000000E+00
 -2.64666179E-04 -1.68862806E-04  0.00000000E+00  9.23022376E-06  5.68127547E-06
  0.00000000E+00  0.00000000E+00  1.33414070E-06 -1.80289371E-05  0.00000000E+00
 -3.75490151E-05 -3.68915919E-05  0.00000000E+00  0.00000000E+00 -7.69296209E-05
  2.24525575E-05  5.34421020E-03  1.18963276E-05  2.14078591E-04 -7.09944512E-05
 -4.60126444E-04  1.03377721E-05  1.21345444E-05  0.00000000E+00 -6.15444303E-05
 -4.86297145E-05  0.00000000E+00  2.45608203E-04 -2.22297160E-04  0.00000000E+00
 -1.80133903E-04 -6.30871638E-05  0.00000000E+00 -8.58626693E-06  0.00000000E+00
  0.00000000E+00  2.38651477E-05  2.21224892E-05  8.15728550E-06  0.00000000E+00
  0.00000000E+00 -1.26467430E-04 -6.22924190E-05 -6.71499815E-06  0.00000000E+00
  0.00000000E+00 -2.32940160E-04 -2.31612431E-04  0.00000000E+00  2.92112961E-06
 -1.22338679E-06  0.00000000E+00  0.00000000E+00  1.32437840E-06 -1.09618817E-05
  0.00000000E+00 -4.61971762E-05  7.45833209E-06  0.00000000E+00  0.00000000E+00
 -8.80788696E-05  1.86570186E-04  2.61053262E-04  1.47885223E-03 -2.45430034E-05
 -1.81124534E-03  3.23922786E-04 -1.75155202E-04 -4.82985358E-06  0.00000000E+00
 -2.04122117E-03 -3.76297334E-04  0.00000000E+00  1.17332972E-03  7.65649794E-04
  0.00000000E+00 -1.58348268E-04  5.64454178E-05  0.00000000E+00 -1.19370739E-04
  0.00000000E+00  0.00000000E+00  2.39144363E-04  9.21729068E-05 -4.06933632E-04
  0.00000000E+00  0.00000000E+00  8.29098887E-04 -1.13482945E-04  3.02636712E-05
  0.00000000E+00  0.00000000E+00 -3.76233522E-04 -1.35554406E-04  0.00000000E+00
 -2.11446219E-05  1.12013896E-05  0.00000000E+00  0.00000000E+00  4.26495565E-05
  2.57663421E-05  0.00000000E+00  1.58805312E-04 -7.18266719E-05  0.00000000E+00
  0.00000000E+00 -2.11391358E-04  3.89849878E-05  9.76618559E-01 -9.82825133E-03
  4.36018110E-02  4.75365779E-03 -3.56117701E-04  2.16191705E-03  4.74323836E-04
  0.00000000E+00 -2.32521821E-03 -5.87614534E-04  0.00000000E+00  1.19778151E-03
  8.39994044E-06  0.00000000E+00  1.41926608E-05 -3.87418374E-05  0.00000000E+00
 -2.41121933E-04  0.00000000E+00  0.00000000E+00  1.17977314E-04  3.59286806E-05
  3.81607095E-04  0.00000000E+00  0.00000000E+00 -8.14576698E-04 -4.07717797E-04
 -1.43138847E-04  0.00000000E+00  0.00000000E+00  2.42180499E-04  1.55019571E-05
  0.00000000E+00  4.50785297E-05  1.66932309E-05  0.00000000E+00  0.00000000E+00
 -1.32920743E-05 -9.37925555E-06  0.00000000E+00  1.45828796E-04  9.98977886E-06
  0.00000000E+00  0.00000000E+00 -1.94205592E-04 -1.40881564E-04  4.74903865E-04
  2.06466447E-03  1.18373295E-04  1.43863178E-05 -4.21151144E-05 -2.46717780E-04
  0.00000000E+00  1.05387682E-04 -1.27646332E-03  0.00000000E+00  3.07056613E-04
 -3.41188326E-04  0.00000000E+00 -2.65200629E-06  0.00000000E+00  0.00000000E+00
  7.60929273E-05  1.46162601E-05 -1.60237816E-04  0.00000000E+00  0.00000000E+00
 -5.37281690E-04 -1.85510995E-05  9.76828774E-01 -9.16312844E-03  4.34502583E-02
  1.65220673E-04 -1.14009601E-03 -1.55351495E-03  1.44909713E-03  0.00000000E+00
  1.56690034E-03 -1.29196986E-03  0.00000000E+00 -5.74973222E-04 -8.67856086E-04
  0.00000000E+00  5.65805124E-05 -2.87637045E-05  0.00000000E+00  2.92986168E-05
  0.00000000E+00  0.00000000E+00 -1.17826856E-04 -1.66341137E-06  7.57216391E-04
  0.00000000E+00  0.00000000E+00 -2.03102662E-04 -2.33617957E-04 -2.65854113E-04
  0.00000000E+00  0.00000000E+00  1.70566383E-04  1.27046976E-04  0.00000000E+00
 -6.40387063E-05  1.50264042E-06  0.00000000E+00  0.00000000E+00  1.88813845E-05
  9.63966575E-06  0.00000000E+00 -6.36350035E-07  1.23064208E-04  0.00000000E+00
  0.00000000E+00  2.58571682E-04  8.83254821E-05 -4.87306153E-03 -2.09449467E-04