title                                                                   
SP        RMP2-FC                                                     Aug-CC-pVTZ         
Number of atoms                            I                5
Info1-9                                    I   N=           9
          33          24           0           0           0         110
           1           2           1
Full Title                                 C   N=           1
title       
Route                                      C   N=           4
#p SP mp2/aug-cc-pvtz density=current           
Charge                                     I                0
Multiplicity                               I                1
Number of electrons                        I               32
Number of alpha electrons                  I               16
Number of beta electrons                   I               16
Number of basis functions                  I              207
Number of independent functions            I              207
Number of point charges in /Mol/           I                0
Number of translation vectors              I                0
Atomic numbers                             I   N=           5
           1           8           8           7           8
Nuclear charges                            R   N=           5
  1.00000000E+00  8.00000000E+00  8.00000000E+00  7.00000000E+00  8.00000000E+00
Current cartesian coordinates              R   N=          15
  2.93030479E+00  3.21544991E+00  2.93983764E-32  2.74778763E+00  1.36504058E+00
 -8.82554457E-34  1.12590706E-16  1.27092285E+00 -2.28160567E-32 -4.94598431E-01
 -1.44104695E+00 -1.65875061E-32 -2.68130210E+00 -1.77697859E+00 -6.10780954E-33
Number of symbols in /Mol/                 I                0
Force Field                                I                0
Atom Types                                 C   N=           5
                                                            
Int Atom Types                             I   N=           5
           0           0           0           0           0
MM charges                                 R   N=           5
  0.00000000E+00  0.00000000E+00  0.00000000E+00  0.00000000E+00  0.00000000E+00
Integer atomic weights                     I   N=           5
           1          16          16          14          16
Real atomic weights                        R   N=           5
  1.00782504E+00  1.59949146E+01  1.59949146E+01  1.40030740E+01  1.59949146E+01
Atom fragment info                         I   N=           5
           0           0           0           0           0
Atom residue num                           I   N=           5
           0           0           0           0           0
Nuclear spins                              I   N=           5
           1           0           0           2           0
Nuclear ZEff                               R   N=           5
 -1.00000000E+00 -5.60000000E+00 -5.60000000E+00 -4.55000000E+00 -5.60000000E+00
Nuclear ZNuc                               R   N=           5
  1.00000000E+00  8.00000000E+00  8.00000000E+00  7.00000000E+00  8.00000000E+00
Nuclear QMom                               R   N=           5
  0.00000000E+00  0.00000000E+00  0.00000000E+00  2.04400000E+00  0.00000000E+00
Nuclear GFac                               R   N=           5
  2.79284600E+00  0.00000000E+00  0.00000000E+00  4.03761000E-01  0.00000000E+00
MicOpt                                     I   N=           5
          -1          -1          -1          -1          -1
Number of residues                         I                0
Number of secondary structures             I                0
SymInf integers                            I   N=          26
           1           2           1           1           1           1
           1          -1           0           0           0           0
           0           0           0           0           0           0
           0           0           0           0           0           0
           0           0
RotTr to input orientation                 R   N=          12
 -9.95170671E-01 -9.84005553E-17 -9.81597498E-02  9.81597498E-02 -7.29035564E-17
 -9.95170671E-01  9.07691517E-17 -1.00000000E+00  8.22104550E-17  2.60052562E+00
  0.00000000E+00  3.48755942E+00
Number of contracted shells                I               65
Number of primitive shells                 I              119
Pure/Cartesian d shells                    I                0
Pure/Cartesian f shells                    I                0
Highest angular momentum                   I                3
Largest degree of contraction              I                7
Shell types                                I   N=          65
           0           0           0           0           1           1
           1          -2          -2           0           0           0
           0           0           1           1           1           1
          -2          -2          -2          -3          -3           0
           0           0           0           0           1           1
           1           1          -2          -2          -2          -3
          -3           0           0           0           0           0
           1           1           1           1          -2          -2
          -2          -3          -3           0           0           0
           0           0           1           1           1           1
          -2          -2          -2          -3          -3
Number of primitives per shell             I   N=          65
           3           1           1           1           1           1
           1           1           1           7           6           1
           1           1           3           1           1           1
           1           1           1           1           1           7
           6           1           1           1           3           1
           1           1           1           1           1           1
           1           7           6           1           1           1
           3           1           1           1           1           1
           1           1           1           7           6           1
           1           1           3           1           1           1
           1           1           1           1           1
Shell to atom map                          I   N=          65
           1           1           1           1           1           1
           1           1           1           2           2           2
           2           2           2           2           2           2
           2           2           2           2           2           3
           3           3           3           3           3           3
           3           3           3           3           3           3
           3           4           4           4           4           4
           4           4           4           4           4           4
           4           4           4           5           5           5
           5           5           5           5           5           5
           5           5           5           5           5
Primitive exponents                        R   N=         119
  3.38700000E+01  5.09500000E+00  1.15900000E+00  3.25800000E-01  1.02700000E-01
  2.52600000E-02  1.40700000E+00  3.88000000E-01  1.02000000E-01  1.05700000E+00
  2.47000000E-01  1.53300000E+04  2.29900000E+03  5.22400000E+02  1.47300000E+02
  4.75500000E+01  1.67600000E+01  6.20700000E+00  5.22400000E+02  1.47300000E+02
  4.75500000E+01  1.67600000E+01  6.20700000E+00  6.88200000E-01  1.75200000E+00
  2.38400000E-01  7.37600000E-02  3.44600000E+01  7.74900000E+00  2.28000000E+00
  7.15600000E-01  2.14000000E-01  5.97400000E-02  2.31400000E+00  6.45000000E-01
  2.14000000E-01  1.42800000E+00  5.00000000E-01  1.53300000E+04  2.29900000E+03
  5.22400000E+02  1.47300000E+02  4.75500000E+01  1.67600000E+01  6.20700000E+00
  5.22400000E+02  1.47300000E+02  4.75500000E+01  1.67600000E+01  6.20700000E+00
  6.88200000E-01  1.75200000E+00  2.38400000E-01  7.37600000E-02  3.44600000E+01
  7.74900000E+00  2.28000000E+00  7.15600000E-01  2.14000000E-01  5.97400000E-02
  2.31400000E+00  6.45000000E-01  2.14000000E-01  1.42800000E+00  5.00000000E-01
  1.14200000E+04  1.71200000E+03  3.89300000E+02  1.10000000E+02  3.55700000E+01
  1.25400000E+01  4.64400000E+00  3.89300000E+02  1.10000000E+02  3.55700000E+01
  1.25400000E+01  4.64400000E+00  5.11800000E-01  1.29300000E+00  1.78700000E-01
  5.76000000E-02  2.66300000E+01  5.94800000E+00  1.74200000E+00  5.55000000E-01
  1.72500000E-01  4.91000000E-02  1.65400000E+00  4.69000000E-01  1.51000000E-01
  1.09300000E+00  3.64000000E-01  1.53300000E+04  2.29900000E+03  5.22400000E+02
  1.47300000E+02  4.75500000E+01  1.67600000E+01  6.20700000E+00  5.22400000E+02
  1.47300000E+02  4.75500000E+01  1.67600000E+01  6.20700000E+00  6.88200000E-01
  1.75200000E+00  2.38400000E-01  7.37600000E-02  3.44600000E+01  7.74900000E+00
  2.28000000E+00  7.15600000E-01  2.14000000E-01  5.97400000E-02  2.31400000E+00
  6.45000000E-01  2.14000000E-01  1.42800000E+00  5.00000000E-01
Contraction coefficients                   R   N=         119
  2.54948632E-02  1.90362766E-01  8.52162022E-01  1.00000000E+00  1.00000000E+00
  1.00000000E+00  1.00000000E+00  1.00000000E+00  1.00000000E+00  1.00000000E+00
  1.00000000E+00  5.19808943E-04  4.02025621E-03  2.07128267E-02  8.10105536E-02
  2.35962985E-01  4.42653446E-01  3.57064423E-01 -4.42115008E-05 -1.22591041E-03
 -1.05517725E-02 -6.74452633E-02 -1.71198607E-01  1.07329856E+00  1.00000000E+00
  1.00000000E+00  1.00000000E+00  4.11634896E-02  2.57762836E-01  8.02419274E-01
  1.00000000E+00  1.00000000E+00  1.00000000E+00  1.00000000E+00  1.00000000E+00
  1.00000000E+00  1.00000000E+00  1.00000000E+00  5.19808943E-04  4.02025621E-03
  2.07128267E-02  8.10105536E-02  2.35962985E-01  4.42653446E-01  3.57064423E-01
 -4.42115008E-05 -1.22591041E-03 -1.05517725E-02 -6.74452633E-02 -1.71198607E-01
  1.07329856E+00  1.00000000E+00  1.00000000E+00  1.00000000E+00  4.11634896E-02
  2.57762836E-01  8.02419274E-01  1.00000000E+00  1.00000000E+00  1.00000000E+00
  1.00000000E+00  1.00000000E+00  1.00000000E+00  1.00000000E+00  1.00000000E+00
  5.34563860E-04  4.13435660E-03  2.12335358E-02  8.25006224E-02  2.38138871E-01
  4.42551547E-01  3.53757422E-01 -4.89867350E-05 -1.19527323E-03 -1.03490714E-02
 -6.48680190E-02 -1.71552477E-01  1.07289568E+00  1.00000000E+00  1.00000000E+00
  1.00000000E+00  3.98072123E-02  2.49002660E-01  8.10479727E-01  1.00000000E+00
  1.00000000E+00  1.00000000E+00  1.00000000E+00  1.00000000E+00  1.00000000E+00
  1.00000000E+00  1.00000000E+00  5.19808943E-04  4.02025621E-03  2.07128267E-02
  8.10105536E-02  2.35962985E-01  4.42653446E-01  3.57064423E-01 -4.42115008E-05
 -1.22591041E-03 -1.05517725E-02 -6.74452633E-02 -1.71198607E-01  1.07329856E+00
  1.00000000E+00  1.00000000E+00  1.00000000E+00  4.11634896E-02  2.57762836E-01
  8.02419274E-01  1.00000000E+00  1.00000000E+00  1.00000000E+00  1.00000000E+00
  1.00000000E+00  1.00000000E+00  1.00000000E+00  1.00000000E+00
Coordinates of each shell                  R   N=         195
  2.93030479E+00  3.21544991E+00  0.00000000E+00  2.93030479E+00  3.21544991E+00
  0.00000000E+00  2.93030479E+00  3.21544991E+00  0.00000000E+00  2.93030479E+00
  3.21544991E+00  0.00000000E+00  2.93030479E+00  3.21544991E+00  0.00000000E+00
  2.93030479E+00  3.21544991E+00  0.00000000E+00  2.93030479E+00  3.21544991E+00
  0.00000000E+00  2.93030479E+00  3.21544991E+00  0.00000000E+00  2.93030479E+00
  3.21544991E+00  0.00000000E+00  2.74778763E+00  1.36504058E+00  0.00000000E+00
  2.74778763E+00  1.36504058E+00  0.00000000E+00  2.74778763E+00  1.36504058E+00
  0.00000000E+00  2.74778763E+00  1.36504058E+00  0.00000000E+00  2.74778763E+00
  1.36504058E+00  0.00000000E+00  2.74778763E+00  1.36504058E+00  0.00000000E+00
  2.74778763E+00  1.36504058E+00  0.00000000E+00  2.74778763E+00  1.36504058E+00
  0.00000000E+00  2.74778763E+00  1.36504058E+00  0.00000000E+00  2.74778763E+00
  1.36504058E+00  0.00000000E+00  2.74778763E+00  1.36504058E+00  0.00000000E+00
  2.74778763E+00  1.36504058E+00  0.00000000E+00  2.74778763E+00  1.36504058E+00
  0.00000000E+00  2.74778763E+00  1.36504058E+00  0.00000000E+00  3.18867314E-19
  1.27092285E+00  0.00000000E+00  3.18867314E-19  1.27092285E+00  0.00000000E+00
  3.18867314E-19  1.27092285E+00  0.00000000E+00  3.18867314E-19  1.27092285E+00
  0.00000000E+00  3.18867314E-19  1.27092285E+00  0.00000000E+00  3.18867314E-19
  1.27092285E+00  0.00000000E+00  3.18867314E-19  1.27092285E+00  0.00000000E+00
  3.18867314E-19  1.27092285E+00  0.00000000E+00  3.18867314E-19  1.27092285E+00
  0.00000000E+00  3.18867314E-19  1.27092285E+00  0.00000000E+00  3.18867314E-19
  1.27092285E+00  0.00000000E+00  3.18867314E-19  1.27092285E+00  0.00000000E+00
  3.18867314E-19  1.27092285E+00  0.00000000E+00  3.18867314E-19  1.27092285E+00
  0.00000000E+00 -4.94598431E-01 -1.44104695E+00  0.00000000E+00 -4.94598431E-01
 -1.44104695E+00  0.00000000E+00 -4.94598431E-01 -1.44104695E+00  0.00000000E+00
 -4.94598431E-01 -1.44104695E+00  0.00000000E+00 -4.94598431E-01 -1.44104695E+00
  0.00000000E+00 -4.94598431E-01 -1.44104695E+00  0.00000000E+00 -4.94598431E-01
 -1.44104695E+00  0.00000000E+00 -4.94598431E-01 -1.44104695E+00  0.00000000E+00
 -4.94598431E-01 -1.44104695E+00  0.00000000E+00 -4.94598431E-01 -1.44104695E+00
  0.00000000E+00 -4.94598431E-01 -1.44104695E+00  0.00000000E+00 -4.94598431E-01
 -1.44104695E+00  0.00000000E+00 -4.94598431E-01 -1.44104695E+00  0.00000000E+00
 -4.94598431E-01 -1.44104695E+00  0.00000000E+00 -2.68130210E+00 -1.77697859E+00
  0.00000000E+00 -2.68130210E+00 -1.77697859E+00  0.00000000E+00 -2.68130210E+00
 -1.77697859E+00  0.00000000E+00 -2.68130210E+00 -1.77697859E+00  0.00000000E+00
 -2.68130210E+00 -1.77697859E+00  0.00000000E+00 -2.68130210E+00 -1.77697859E+00
  0.00000000E+00 -2.68130210E+00 -1.77697859E+00  0.00000000E+00 -2.68130210E+00
 -1.77697859E+00  0.00000000E+00 -2.68130210E+00 -1.77697859E+00  0.00000000E+00
 -2.68130210E+00 -1.77697859E+00  0.00000000E+00 -2.68130210E+00 -1.77697859E+00
  0.00000000E+00 -2.68130210E+00 -1.77697859E+00  0.00000000E+00 -2.68130210E+00
 -1.77697859E+00  0.00000000E+00 -2.68130210E+00 -1.77697859E+00  0.00000000E+00
Num ILSW                                   I              100
ILSW                                       I   N=         100
           0           0           0           0           2           0
           0           0           0           0           0          -1
           5           0           0           0           0           0
           0           0           0           0           0           0
           1           0           0           0           0           0
           0           0      100000           0          -1           0
           0           0           0           0           0           0
           0           0           0           1           0           0
           0 -2000000000           1           0           0           0
           0           0           4          52           0           0
           0           0           0           0           0           0
           0           0           0           5           0           1
           0           0           0           0           0           0
           0           0           0           0           0           0
           0           0           0           0           0           0
           0           0           0           0           0           0
           0           0           0           0
Num RLSW                                   I               52
RLSW                                       R   N=          52
  1.00000000E+00  1.00000000E+00  1.00000000E+00  1.00000000E+00  1.00000000E+00
  0.00000000E+00  0.00000000E+00  1.00000000E+00  0.00000000E+00  0.00000000E+00
  0.00000000E+00  0.00000000E+00  1.00000000E+00  0.00000000E+00  0.00000000E+00
  0.00000000E+00  0.00000000E+00  1.00000000E+00  0.00000000E+00  0.00000000E+00
  0.00000000E+00  0.00000000E+00  1.00000000E+00  0.00000000E+00  0.00000000E+00
  0.00000000E+00  0.00000000E+00  1.00000000E+00  0.00000000E+00  0.00000000E+00
  0.00000000E+00  0.00000000E+00  1.00000000E+00  0.00000000E+00  0.00000000E+00
  0.00000000E+00  0.00000000E+00  0.00000000E+00  1.00000000E+00  1.00000000E+00
  0.00000000E+00  1.00000000E+00  0.00000000E+00  0.00000000E+00  0.00000000E+00
  0.00000000E+00  0.00000000E+00  0.00000000E+00  0.00000000E+00  0.00000000E+00
  0.00000000E+00  0.00000000E+00
MxBond                                     I                2
NBond                                      I   N=           5
           1           2           2           2           1
IBond                                      I   N=          10
           2           0           1           3           2           4
           3           5           4           0
RBond                                      R   N=          10
  1.00000000E+00  0.00000000E+00  1.00000000E+00  1.00000000E+00  1.00000000E+00
  1.00000000E+00  1.00000000E+00  2.00000000E+00  2.00000000E+00  0.00000000E+00
Virial Ratio                               R      2.002448751031924E+00
SCF Energy                                 R     -2.795007724195508E+02
MP2 Energy                                 R     -2.804465365158832E+02
Total Energy                               R     -2.804465365158832E+02
Post-SCF wavefunction norm                 R      1.120484525114184E+00
RMS Density                                R      3.793409167493575E-09
Job Status                                 I                1
Nuclear derivative order                   I                0
External E-field                           R   N=          35
  0.00000000E+00  0.00000000E+00  0.00000000E+00  0.00000000E+00  0.00000000E+00
  0.00000000E+00  0.00000000E+00  0.00000000E+00  0.00000000E+00  0.00000000E+00
  0.00000000E+00  0.00000000E+00  0.00000000E+00  0.00000000E+00  0.00000000E+00
  0.00000000E+00  0.00000000E+00  0.00000000E+00  0.00000000E+00  0.00000000E+00
  0.00000000E+00  0.00000000E+00  0.00000000E+00  0.00000000E+00  0.00000000E+00
  0.00000000E+00  0.00000000E+00  0.00000000E+00  0.00000000E+00  0.00000000E+00
  0.00000000E+00  0.00000000E+00  0.00000000E+00  0.00000000E+00  0.00000000E+00
IOpCl                                      I                0
IROHF                                      I                0
Alpha Orbital Energies                     R   N=         207
 -2.06904851E+01 -2.06840106E+01 -2.06611243E+01 -1.58125268E+01 -1.62368803E+00
 -1.49395020E+00 -1.25153354E+00 -9.47723381E-01 -7.71622816E-01 -7.57950911E-01
 -7.11444084E-01 -6.77042197E-01 -6.20015051E-01 -5.88708025E-01 -4.84717050E-01
 -4.72093108E-01  2.93377297E-02  7.19017052E-02  8.60088583E-02  1.01756749E-01
  1.33959612E-01  1.34067316E-01  1.43413719E-01  1.53989612E-01  1.78463518E-01
  1.94214537E-01  1.99856178E-01  2.06357352E-01  2.20865340E-01  2.35834009E-01
  2.37519002E-01  2.65659849E-01  2.93131793E-01  3.03232219E-01  3.09901362E-01
  3.43559653E-01  3.50545515E-01  3.86962940E-01  4.19892212E-01  4.29984935E-01
  5.27453866E-01  5.29443052E-01  5.58559732E-01  5.81878236E-01  6.26128809E-01
  6.38322408E-01  6.74659614E-01  6.83063117E-01  7.06448298E-01  7.10503533E-01
  7.22948013E-01  7.29426965E-01  7.44393653E-01  7.91880081E-01  7.91951519E-01
  8.10114281E-01  8.12895291E-01  8.30392253E-01  8.68448019E-01  9.08279895E-01
  9.21536980E-01  9.26078472E-01  9.55295372E-01  9.79223988E-01  9.82574712E-01
  1.01382891E+00  1.05266406E+00  1.05483988E+00  1.08101439E+00  1.11542893E+00
  1.13941764E+00  1.18997333E+00  1.21983280E+00  1.22977959E+00  1.33927622E+00
  1.35131932E+00  1.38644357E+00  1.44937796E+00  1.48357100E+00  1.50653025E+00
  1.53845740E+00  1.56686928E+00  1.58066723E+00  1.61167634E+00  1.66523062E+00
  1.67079807E+00  1.70316644E+00  1.79246450E+00  1.83086604E+00  1.83507021E+00
  1.87878934E+00  1.90802971E+00  1.94780981E+00  1.99164384E+00  2.00343784E+00
  2.07758600E+00  2.11908503E+00  2.13220296E+00  2.15040287E+00  2.22362900E+00
  2.26365580E+00  2.26616526E+00  2.28955505E+00  2.31292995E+00  2.34295362E+00
  2.38362436E+00  2.42438175E+00  2.42753750E+00  2.45426328E+00  2.46255860E+00
  2.47596641E+00  2.50029713E+00  2.59442066E+00  2.59600970E+00  2.62146639E+00
  2.62331983E+00  2.63507237E+00  2.67051967E+00  2.75732671E+00  2.83028473E+00
  2.85519286E+00  2.88350687E+00  2.89473911E+00  2.92270895E+00  2.95817690E+00
  3.02243980E+00  3.06721413E+00  3.12410933E+00  3.20498520E+00  3.22555555E+00
  3.31467229E+00  3.34023223E+00  3.51765813E+00  3.63688110E+00  3.82842837E+00
  3.83825294E+00  4.13547532E+00  4.15771517E+00  4.18070775E+00  4.25616761E+00
  4.33885295E+00  4.38980147E+00  4.45884646E+00  4.51341100E+00  4.66037805E+00
  4.70455324E+00  4.79655781E+00  4.80790327E+00  4.82593972E+00  4.89551042E+00
  5.02332586E+00  5.07743193E+00  5.08714282E+00  5.13261460E+00  5.17142079E+00
  5.22581021E+00  5.25931478E+00  5.30146920E+00  5.30591996E+00  5.35217608E+00
  5.59894182E+00  5.67370716E+00  5.76553114E+00  5.82165368E+00  5.95589998E+00
  6.17204812E+00  6.30842975E+00  6.34113771E+00  6.39113272E+00  6.49364595E+00
  6.50540786E+00  6.61147330E+00  6.66946119E+00  6.69926142E+00  6.75845129E+00
  6.76380669E+00  6.83230208E+00  6.89841785E+00  7.00355864E+00  7.05439436E+00
  7.05515267E+00  7.08771721E+00  7.12034947E+00  7.14653885E+00  7.17817052E+00
  7.22134077E+00  7.22192946E+00  7.29282506E+00  7.32519143E+00  7.34433279E+00
  7.40002717E+00  7.42874206E+00  7.48459606E+00  7.60687436E+00  7.61536046E+00
  7.62420907E+00  7.66179890E+00  7.77487938E+00  7.88683013E+00  8.08563393E+00
  8.30882908E+00  8.39109756E+00  8.53958092E+00  1.33866693E+01  1.43710723E+01
  1.49592500E+01  1.61526475E+01
Alpha MO coefficients                      R   N=       42849
  9.02718461E-05 -6.33835476E-04 -7.18031846E-04 -4.25963167E-06 -2.27782936E-05
 -2.81854627E-05  0.00000000E+00 -1.34374927E-05  7.57269153E-05  0.00000000E+00
  1.08194532E-04  4.21873128E-05  0.00000000E+00  3.14947442E-05  0.00000000E+00
  0.00000000E+00 -4.81244959E-05  1.78350312E-05 -2.25053968E-06  0.00000000E+00
  0.00000000E+00 -1.35750404E-04  1.00378708E-04  4.82975036E-03 -2.78691729E-04
  2.56143297E-05  1.56132960E-03  1.80803934E-03  1.05863452E-04  7.65502045E-06
  0.00000000E+00 -6.16570326E-04 -2.89160202E-05  0.00000000E+00 -1.14360288E-03
  7.80930089E-04  0.00000000E+00 -4.09640715E-04  5.04145219E-05  0.00000000E+00
  2.83636899E-05  0.00000000E+00  0.00000000E+00 -5.41362756E-05  6.67465118E-06
 -3.77299902E-04  0.00000000E+00  0.00000000E+00  7.35237654E-04 -3.84409393E-05
 -4.46924052E-04  0.00000000E+00  0.00000000E+00  2.45040225E-04 -2.79195326E-05
  0.00000000E+00  7.95681417E-05  1.24819037E-05  0.00000000E+00  0.00000000E+00
 -1.09930480E-04 -3.72193441E-06  0.00000000E+00  2.57307532E-04 -2.61362412E-05
  0.00000000E+00  0.00000000E+00 -3.46316876E-04  4.67317532E-05  9.76910201E-01
 -9.21455952E-03  4.33177825E-02  2.03016558E-03 -9.15065075E-04  1.49277789E-03
 -1.35560618E-03  0.00000000E+00 -1.43322484E-03  1.38437380E-03  0.00000000E+00
  7.90136830E-05 -1.15991423E-03  0.00000000E+00 -1.22419690E-04  1.15653270E-06
  0.00000000E+00  4.61786352E-05  0.00000000E+00  0.00000000E+00 -3.52072658E-05
  2.11266121E-05  7.46686588E-04  0.00000000E+00  0.00000000E+00 -2.30171481E-04
 -3.89420842E-04 -3.60020640E-04  0.00000000E+00  0.00000000E+00 -3.12025943E-04
 -3.73706741E-04  0.00000000E+00  4.74200931E-05 -4.88050462E-05  0.00000000E+00
  0.00000000E+00 -3.88167533E-05 -1.58401143E-05  0.00000000E+00  2.27160536E-05
  2.12007174E-05  0.00000000E+00  0.00000000E+00 -3.04334889E-04 -1.38722963E-04
  3.91042995E-05  4.58305152E-05 -2.64734904E-04 -7.06815725E-04 -1.45483312E-04
 -2.73222107E-05 -9.75913796E-05  0.00000000E+00  2.73879907E-04  7.10933401E-04
  0.00000000E+00 -8.40240078E-04 -4.82686438E-04  0.00000000E+00 -1.31647364E-04
 -2.89752106E-05  0.00000000E+00 -1.81019170E-05  0.00000000E+00  0.00000000E+00
 -2.96930929E-05  1.52326488E-05 -3.28683262E-04  0.00000000E+00  0.00000000E+00
 -8.29757844E-04  1.28119218E-04 -3.49906565E-05  0.00000000E+00  0.00000000E+00
  9.57083970E-05 -1.18250186E-04  0.00000000E+00 -2.10807442E-05 -1.20335390E-04
  0.00000000E+00  0.00000000E+00 -6.25609132E-05 -1.37388384E-04  0.00000000E+00
  4.66198505E-06 -1.51701273E-04  0.00000000E+00  0.00000000E+00  4.47866352E-05
 -4.20976864E-04 -2.62030011E-03  1.21550562E-04 -1.25662613E-04 -2.42130565E-04
  1.42811433E-04 -8.20307666E-06 -2.79817746E-05  0.00000000E+00  7.01929718E-05
  1.65009284E-04  0.00000000E+00  2.36484253E-04  2.03029681E-04  0.00000000E+00
  1.29236660E-04  2.72930340E-05  0.00000000E+00 -3.39455553E-06  0.00000000E+00
  0.00000000E+00 -1.79259382E-05  1.12996795E-06  4.70007603E-07  0.00000000E+00
  0.00000000E+00  8.12786842E-05  8.87480548E-05 -1.00813800E-04  0.00000000E+00
  0.00000000E+00  1.67408327E-04  1.63036269E-04  0.00000000E+00  1.57480932E-05
 -3.52754301E-06  0.00000000E+00  0.00000000E+00 -4.22426630E-06 -1.19382924E-05
  0.00000000E+00 -3.35302583E-05  4.53460571E-05  0.00000000E+00  0.00000000E+00
  8.40494389E-05  9.02736011E-05  3.97213831E-05 -9.57601992E-04 -4.63814641E-04
 -1.02785593E-05 -2.17155953E-05  1.43438074E-05  0.00000000E+00  3.55939025E-06
  2.74744994E-04  0.00000000E+00 -4.01451230E-05  1.30873055E-04  0.00000000E+00
  2.56380105E-05  0.00000000E+00  0.00000000E+00  1.30775004E-05  1.10455909E-05
 -2.58353310E-05  0.00000000E+00  0.00000000E+00  1.22855477E-05  3.25761944E-05
  1.17997902E-04  8.17515914E-05 -2.82238603E-05  7.20469561E-04  6.30017665E-04
  1.02573073E-05  2.50295885E-06  0.00000000E+00 -7.37416580E-05  1.28217755E-05
  0.00000000E+00  3.28239751E-04  8.82902858E-04  0.00000000E+00  4.61312257E-06
  7.90134067E-05  0.00000000E+00 -2.20935473E-06  0.00000000E+00  0.00000000E+00
  1.79809082E-07 -6.02439256E-06 -3.53796915E-05  0.00000000E+00  0.00000000E+00
 -2.05110027E-05  8.20623166E-05 -2.23511671E-05  0.00000000E+00  0.00000000E+00
 -2.65118806E-04 -1.62053442E-04  0.00000000E+00  9.21445917E-06  6.05482181E-06
  0.00000000E+00  0.00000000E+00  2.81267253E-06 -1.88359278E-05  0.00000000E+00
 -4.01764430E-05 -3.83252624E-05  0.00000000E+00  0.00000000E+00 -7.59085692E-05
  1.86672284E-05  2.65913484E-03  3.91983773E-05  9.30229183E-05 -6.91023734E-05
 -4.66752681E-04  7.25587619E-06  1.56870241E-05  0.00000000E+00 -6.16315043E-05
 -5.51557229E-05  0.00000000E+00  2.36077328E-04 -1.86356613E-04  0.00000000E+00
 -1.86513721E-04 -6.31608910E-05  0.00000000E+00 -8.72072533E-06  0.00000000E+00
  0.00000000E+00  2.23892669E-05  1.97552775E-05  4.32858649E-06  0.00000000E+00
  0.00000000E+00 -1.17176689E-04 -4.62984514E-05 -4.40248926E-06  0.00000000E+00
  0.00000000E+00 -2.21166920E-04 -2.05612320E-04  0.00000000E+00  3.21191785E-06
 -5.62051520E-07  0.00000000E+00  0.00000000E+00  1.71809612E-06 -1.35274368E-05
  0.00000000E+00 -4.63148937E-05  3.60282609E-06  0.00000000E+00  0.00000000E+00
 -7.60884435E-05  1.87845371E-04  2.58674787E-04  1.46506002E-03 -7.81073594E-05
 -1.53912635E-03  4.02616334E-04 -1.44552675E-04  1.28155694E-07  0.00000000E+00
 -2.08852140E-03 -4.03482228E-04  0.00000000E+00  1.03534720E-03  7.62504255E-04
  0.00000000E+00 -1.69791591E-04  5.80370285E-05  0.00000000E+00 -1.23345473E-04
  0.00000000E+00  0.00000000E+00  2.43077320E-04  9.40484015E-05 -4.42080530E-04
  0.00000000E+00  0.00000000E+00  8.98810757E-04 -6.62834808E-05  1.16867047E-05
  0.00000000E+00  0.00000000E+00 -3.38273429E-04 -1.23966590E-04  0.00000000E+00
 -1.36690092E-06  1.52729770E-05  0.00000000E+00  0.00000000E+00  1.89039012E-05
  1.34675975E-05  0.00000000E+00  1.64859457E-04 -7.16468188E-05  0.00000000E+00
  0.00000000E+00 -2.40850451E-04  4.14019789E-05  9.76649057E-01 -9.84825244E-03
  4.35681150E-02  4.50001268E-03 -4.47162139E-04  2.14800698E-03  4.80537948E-04
  0.00000000E+00 -2.38380849E-03 -6.03087213E-04  0.00000000E+00  1.13957088E-03
 -4.37161208E-06  0.00000000E+00  4.10730815E-06 -4.34023852E-05  0.00000000E+00
 -2.32315962E-04  0.00000000E+00  0.00000000E+00  1.02709831E-04  3.18283182E-05
  3.90466346E-04  0.00000000E+00  0.00000000E+00 -8.33946731E-04 -4.18876265E-04
 -1.53907872E-04  0.00000000E+00  0.00000000E+00  2.56536045E-04  1.66077839E-05
  0.00000000E+00  5.22718716E-05  1.76707204E-05  0.00000000E+00  0.00000000E+00
 -2.21029599E-05 -1.32716902E-05  0.00000000E+00  1.38172795E-04  9.32476903E-06
  0.00000000E+00  0.00000000E+00 -1.89640648E-04 -1.40616658E-04  4.39927256E-04
  2.37613782E-03  3.16413860E-04  2.39001841E-05 -4.18361259E-05 -2.87447046E-04
  0.00000000E+00  9.62909017E-05 -1.43283740E-03  0.00000000E+00  3.02187270E-04
 -3.94810776E-04  0.00000000E+00 -3.34688787E-05  0.00000000E+00  0.00000000E+00
  2.11084495E-05  2.17243726E-05 -1.68265125E-04  0.00000000E+00  0.00000000E+00
 -5.48338545E-04 -2.40117843E-05  9.76836561E-01 -9.19920884E-03  4.34358739E-02
 -8.28028944E-05 -1.30774567E-03 -1.56317082E-03  1.44166958E-03  0.00000000E+00
  1.56462935E-03 -1.38221089E-03  0.00000000E+00 -6.28319061E-04 -1.05853323E-03
  0.00000000E+00  6.46206335E-05 -5.50398445E-05  0.00000000E+00  3.70195984E-05
  0.00000000E+00  0.00000000E+00 -1.06933594E-04 -3.97406285E-06  7.81244226E-04
  0.00000000E+00  0.00000000E+00 -1.56578896E-04 -2.49592233E-04 -2.49260438E-04
  0.00000000E+00  0.00000000E+00  2.14688532E-04  1.21074543E-04  0.00000000E+00
 -6.31874373E-05  1.02816292E-05  0.00000000E+00  0.00000000E+00  2.32341035E-05
  2.22166439E-05  0.00000000E+00  1.87657092E-06  1.23021474E-04  0.00000000E+00
  0.00000000E+00  2.59428141E-04  9.21769405E-05 -4.92040788E-03 -2.04305735E-04