title                                                                   
SP        RMP2-FC                                                     Aug-CC-pVTZ         
Number of atoms                            I                5
Info1-9                                    I   N=           9
          33          24           0           0           0         110
           1           2           1
Full Title                                 C   N=           1
title       
Route                                      C   N=           4
#p SP mp2/aug-cc-pvtz density=current           
Charge                                     I                0
Multiplicity                               I                1
Number of electrons                        I               32
Number of alpha electrons                  I               16
Number of beta electrons                   I               16
Number of basis functions                  I              207
Number of independent functions            I              207
Number of point charges in /Mol/           I                0
Number of translation vectors              I                0
Atomic numbers                             I   N=           5
           1           8           8           7           8
Nuclear charges                            R   N=           5
  1.00000000E+00  8.00000000E+00  8.00000000E+00  7.00000000E+00  8.00000000E+00
Current cartesian coordinates              R   N=          15
  3.01016139E+00  3.17329931E+00  1.46211740E-30  2.74795919E+00  1.36107100E+00
  8.21233491E-32  4.68256457E-17  1.27210299E+00  4.05279205E-31 -4.99679985E-01
 -1.43893514E+00 -4.51033597E-31 -2.68700938E+00 -1.77076815E+00 -7.66344801E-32
Number of symbols in /Mol/                 I                0
Force Field                                I                0
Atom Types                                 C   N=           5
                                                            
Int Atom Types                             I   N=           5
           0           0           0           0           0
MM charges                                 R   N=           5
  0.00000000E+00  0.00000000E+00  0.00000000E+00  0.00000000E+00  0.00000000E+00
Integer atomic weights                     I   N=           5
           1          16          16          14          16
Real atomic weights                        R   N=           5
  1.00782504E+00  1.59949146E+01  1.59949146E+01  1.40030740E+01  1.59949146E+01
Atom fragment info                         I   N=           5
           0           0           0           0           0
Atom residue num                           I   N=           5
           0           0           0           0           0
Nuclear spins                              I   N=           5
           1           0           0           2           0
Nuclear ZEff                               R   N=           5
 -1.00000000E+00 -5.60000000E+00 -5.60000000E+00 -4.55000000E+00 -5.60000000E+00
Nuclear ZNuc                               R   N=           5
  1.00000000E+00  8.00000000E+00  8.00000000E+00  7.00000000E+00  8.00000000E+00
Nuclear QMom                               R   N=           5
  0.00000000E+00  0.00000000E+00  0.00000000E+00  2.04400000E+00  0.00000000E+00
Nuclear GFac                               R   N=           5
  2.79284600E+00  0.00000000E+00  0.00000000E+00  4.03761000E-01  0.00000000E+00
MicOpt                                     I   N=           5
          -1          -1          -1          -1          -1
Number of residues                         I                0
Number of secondary structures             I                0
SymInf integers                            I   N=          26
           1           2           1           1           1           1
           1          -1           0           0           0           0
           0           0           0           0           0           0
           0           0           0           0           0           0
           0           0
RotTr to input orientation                 R   N=          12
 -9.89694648E-01  6.95061811E-16 -1.43193939E-01  1.43193939E-01 -9.71714304E-16
 -9.89694648E-01 -8.27042552E-16 -1.00000000E+00  8.62171807E-16  2.52474339E+00
  0.00000000E+00  3.57163421E+00
Number of contracted shells                I               65
Number of primitive shells                 I              119
Pure/Cartesian d shells                    I                0
Pure/Cartesian f shells                    I                0
Highest angular momentum                   I                3
Largest degree of contraction              I                7
Shell types                                I   N=          65
           0           0           0           0           1           1
           1          -2          -2           0           0           0
           0           0           1           1           1           1
          -2          -2          -2          -3          -3           0
           0           0           0           0           1           1
           1           1          -2          -2          -2          -3
          -3           0           0           0           0           0
           1           1           1           1          -2          -2
          -2          -3          -3           0           0           0
           0           0           1           1           1           1
          -2          -2          -2          -3          -3
Number of primitives per shell             I   N=          65
           3           1           1           1           1           1
           1           1           1           7           6           1
           1           1           3           1           1           1
           1           1           1           1           1           7
           6           1           1           1           3           1
           1           1           1           1           1           1
           1           7           6           1           1           1
           3           1           1           1           1           1
           1           1           1           7           6           1
           1           1           3           1           1           1
           1           1           1           1           1
Shell to atom map                          I   N=          65
           1           1           1           1           1           1
           1           1           1           2           2           2
           2           2           2           2           2           2
           2           2           2           2           2           3
           3           3           3           3           3           3
           3           3           3           3           3           3
           3           4           4           4           4           4
           4           4           4           4           4           4
           4           4           4           5           5           5
           5           5           5           5           5           5
           5           5           5           5           5
Primitive exponents                        R   N=         119
  3.38700000E+01  5.09500000E+00  1.15900000E+00  3.25800000E-01  1.02700000E-01
  2.52600000E-02  1.40700000E+00  3.88000000E-01  1.02000000E-01  1.05700000E+00
  2.47000000E-01  1.53300000E+04  2.29900000E+03  5.22400000E+02  1.47300000E+02
  4.75500000E+01  1.67600000E+01  6.20700000E+00  5.22400000E+02  1.47300000E+02
  4.75500000E+01  1.67600000E+01  6.20700000E+00  6.88200000E-01  1.75200000E+00
  2.38400000E-01  7.37600000E-02  3.44600000E+01  7.74900000E+00  2.28000000E+00
  7.15600000E-01  2.14000000E-01  5.97400000E-02  2.31400000E+00  6.45000000E-01
  2.14000000E-01  1.42800000E+00  5.00000000E-01  1.53300000E+04  2.29900000E+03
  5.22400000E+02  1.47300000E+02  4.75500000E+01  1.67600000E+01  6.20700000E+00
  5.22400000E+02  1.47300000E+02  4.75500000E+01  1.67600000E+01  6.20700000E+00
  6.88200000E-01  1.75200000E+00  2.38400000E-01  7.37600000E-02  3.44600000E+01
  7.74900000E+00  2.28000000E+00  7.15600000E-01  2.14000000E-01  5.97400000E-02
  2.31400000E+00  6.45000000E-01  2.14000000E-01  1.42800000E+00  5.00000000E-01
  1.14200000E+04  1.71200000E+03  3.89300000E+02  1.10000000E+02  3.55700000E+01
  1.25400000E+01  4.64400000E+00  3.89300000E+02  1.10000000E+02  3.55700000E+01
  1.25400000E+01  4.64400000E+00  5.11800000E-01  1.29300000E+00  1.78700000E-01
  5.76000000E-02  2.66300000E+01  5.94800000E+00  1.74200000E+00  5.55000000E-01
  1.72500000E-01  4.91000000E-02  1.65400000E+00  4.69000000E-01  1.51000000E-01
  1.09300000E+00  3.64000000E-01  1.53300000E+04  2.29900000E+03  5.22400000E+02
  1.47300000E+02  4.75500000E+01  1.67600000E+01  6.20700000E+00  5.22400000E+02
  1.47300000E+02  4.75500000E+01  1.67600000E+01  6.20700000E+00  6.88200000E-01
  1.75200000E+00  2.38400000E-01  7.37600000E-02  3.44600000E+01  7.74900000E+00
  2.28000000E+00  7.15600000E-01  2.14000000E-01  5.97400000E-02  2.31400000E+00
  6.45000000E-01  2.14000000E-01  1.42800000E+00  5.00000000E-01
Contraction coefficients                   R   N=         119
  2.54948632E-02  1.90362766E-01  8.52162022E-01  1.00000000E+00  1.00000000E+00
  1.00000000E+00  1.00000000E+00  1.00000000E+00  1.00000000E+00  1.00000000E+00
  1.00000000E+00  5.19808943E-04  4.02025621E-03  2.07128267E-02  8.10105536E-02
  2.35962985E-01  4.42653446E-01  3.57064423E-01 -4.42115008E-05 -1.22591041E-03
 -1.05517725E-02 -6.74452633E-02 -1.71198607E-01  1.07329856E+00  1.00000000E+00
  1.00000000E+00  1.00000000E+00  4.11634896E-02  2.57762836E-01  8.02419274E-01
  1.00000000E+00  1.00000000E+00  1.00000000E+00  1.00000000E+00  1.00000000E+00
  1.00000000E+00  1.00000000E+00  1.00000000E+00  5.19808943E-04  4.02025621E-03
  2.07128267E-02  8.10105536E-02  2.35962985E-01  4.42653446E-01  3.57064423E-01
 -4.42115008E-05 -1.22591041E-03 -1.05517725E-02 -6.74452633E-02 -1.71198607E-01
  1.07329856E+00  1.00000000E+00  1.00000000E+00  1.00000000E+00  4.11634896E-02
  2.57762836E-01  8.02419274E-01  1.00000000E+00  1.00000000E+00  1.00000000E+00
  1.00000000E+00  1.00000000E+00  1.00000000E+00  1.00000000E+00  1.00000000E+00
  5.34563860E-04  4.13435660E-03  2.12335358E-02  8.25006224E-02  2.38138871E-01
  4.42551547E-01  3.53757422E-01 -4.89867350E-05 -1.19527323E-03 -1.03490714E-02
 -6.48680190E-02 -1.71552477E-01  1.07289568E+00  1.00000000E+00  1.00000000E+00
  1.00000000E+00  3.98072123E-02  2.49002660E-01  8.10479727E-01  1.00000000E+00
  1.00000000E+00  1.00000000E+00  1.00000000E+00  1.00000000E+00  1.00000000E+00
  1.00000000E+00  1.00000000E+00  5.19808943E-04  4.02025621E-03  2.07128267E-02
  8.10105536E-02  2.35962985E-01  4.42653446E-01  3.57064423E-01 -4.42115008E-05
 -1.22591041E-03 -1.05517725E-02 -6.74452633E-02 -1.71198607E-01  1.07329856E+00
  1.00000000E+00  1.00000000E+00  1.00000000E+00  4.11634896E-02  2.57762836E-01
  8.02419274E-01  1.00000000E+00  1.00000000E+00  1.00000000E+00  1.00000000E+00
  1.00000000E+00  1.00000000E+00  1.00000000E+00  1.00000000E+00
Coordinates of each shell                  R   N=         195
  3.01016139E+00  3.17329931E+00  5.28285487E-31  3.01016139E+00  3.17329931E+00
  5.28285487E-31  3.01016139E+00  3.17329931E+00  5.28285487E-31  3.01016139E+00
  3.17329931E+00  5.28285487E-31  3.01016139E+00  3.17329931E+00  5.28285487E-31
  3.01016139E+00  3.17329931E+00  5.28285487E-31  3.01016139E+00  3.17329931E+00
  5.28285487E-31  3.01016139E+00  3.17329931E+00  5.28285487E-31  3.01016139E+00
  3.17329931E+00  5.28285487E-31  2.74795919E+00  1.36107100E+00  2.57445119E-31
  2.74795919E+00  1.36107100E+00  2.57445119E-31  2.74795919E+00  1.36107100E+00
  2.57445119E-31  2.74795919E+00  1.36107100E+00  2.57445119E-31  2.74795919E+00
  1.36107100E+00  2.57445119E-31  2.74795919E+00  1.36107100E+00  2.57445119E-31
  2.74795919E+00  1.36107100E+00  2.57445119E-31  2.74795919E+00  1.36107100E+00
  2.57445119E-31  2.74795919E+00  1.36107100E+00  2.57445119E-31  2.74795919E+00
  1.36107100E+00  2.57445119E-31  2.74795919E+00  1.36107100E+00  2.57445119E-31
  2.74795919E+00  1.36107100E+00  2.57445119E-31  2.74795919E+00  1.36107100E+00
  2.57445119E-31  2.74795919E+00  1.36107100E+00  2.57445119E-31  5.00280755E-18
  1.27210299E+00  1.86219519E-31  5.00280755E-18  1.27210299E+00  1.86219519E-31
  5.00280755E-18  1.27210299E+00  1.86219519E-31  5.00280755E-18  1.27210299E+00
  1.86219519E-31  5.00280755E-18  1.27210299E+00  1.86219519E-31  5.00280755E-18
  1.27210299E+00  1.86219519E-31  5.00280755E-18  1.27210299E+00  1.86219519E-31
  5.00280755E-18  1.27210299E+00  1.86219519E-31  5.00280755E-18  1.27210299E+00
  1.86219519E-31  5.00280755E-18  1.27210299E+00  1.86219519E-31  5.00280755E-18
  1.27210299E+00  1.86219519E-31  5.00280755E-18  1.27210299E+00  1.86219519E-31
  5.00280755E-18  1.27210299E+00  1.86219519E-31  5.00280755E-18  1.27210299E+00
  1.86219519E-31 -4.99679985E-01 -1.43893514E+00 -2.21224832E-31 -4.99679985E-01
 -1.43893514E+00 -2.21224832E-31 -4.99679985E-01 -1.43893514E+00 -2.21224832E-31
 -4.99679985E-01 -1.43893514E+00 -2.21224832E-31 -4.99679985E-01 -1.43893514E+00
 -2.21224832E-31 -4.99679985E-01 -1.43893514E+00 -2.21224832E-31 -4.99679985E-01
 -1.43893514E+00 -2.21224832E-31 -4.99679985E-01 -1.43893514E+00 -2.21224832E-31
 -4.99679985E-01 -1.43893514E+00 -2.21224832E-31 -4.99679985E-01 -1.43893514E+00
 -2.21224832E-31 -4.99679985E-01 -1.43893514E+00 -2.21224832E-31 -4.99679985E-01
 -1.43893514E+00 -2.21224832E-31 -4.99679985E-01 -1.43893514E+00 -2.21224832E-31
 -4.99679985E-01 -1.43893514E+00 -2.21224832E-31 -2.68700938E+00 -1.77076815E+00
 -3.16128595E-31 -2.68700938E+00 -1.77076815E+00 -3.16128595E-31 -2.68700938E+00
 -1.77076815E+00 -3.16128595E-31 -2.68700938E+00 -1.77076815E+00 -3.16128595E-31
 -2.68700938E+00 -1.77076815E+00 -3.16128595E-31 -2.68700938E+00 -1.77076815E+00
 -3.16128595E-31 -2.68700938E+00 -1.77076815E+00 -3.16128595E-31 -2.68700938E+00
 -1.77076815E+00 -3.16128595E-31 -2.68700938E+00 -1.77076815E+00 -3.16128595E-31
 -2.68700938E+00 -1.77076815E+00 -3.16128595E-31 -2.68700938E+00 -1.77076815E+00
 -3.16128595E-31 -2.68700938E+00 -1.77076815E+00 -3.16128595E-31 -2.68700938E+00
 -1.77076815E+00 -3.16128595E-31 -2.68700938E+00 -1.77076815E+00 -3.16128595E-31
Num ILSW                                   I              100
ILSW                                       I   N=         100
           0           0           0           0           2           0
           0           0           0           0           0          -1
           5           0           0           0           0           0
           0           0           0           0           0           0
           1           0           0           0           0           0
           0           0      100000           0          -1           0
           0           0           0           0           0           0
           0           0           0           1           0           0
           0 -2000000000           1           0           0           0
           0           0           4          52           0           0
           0           0           0           0           0           0
           0           0           0           5           0           1
           0           0           0           0           0           0
           0           0           0           0           0           0
           0           0           0           0           0           0
           0           0           0           0           0           0
           0           0           0           0
Num RLSW                                   I               52
RLSW                                       R   N=          52
  1.00000000E+00  1.00000000E+00  1.00000000E+00  1.00000000E+00  1.00000000E+00
  0.00000000E+00  0.00000000E+00  1.00000000E+00  0.00000000E+00  0.00000000E+00
  0.00000000E+00  0.00000000E+00  1.00000000E+00  0.00000000E+00  0.00000000E+00
  0.00000000E+00  0.00000000E+00  1.00000000E+00  0.00000000E+00  0.00000000E+00
  0.00000000E+00  0.00000000E+00  1.00000000E+00  0.00000000E+00  0.00000000E+00
  0.00000000E+00  0.00000000E+00  1.00000000E+00  0.00000000E+00  0.00000000E+00
  0.00000000E+00  0.00000000E+00  1.00000000E+00  0.00000000E+00  0.00000000E+00
  0.00000000E+00  0.00000000E+00  0.00000000E+00  1.00000000E+00  1.00000000E+00
  0.00000000E+00  1.00000000E+00  0.00000000E+00  0.00000000E+00  0.00000000E+00
  0.00000000E+00  0.00000000E+00  0.00000000E+00  0.00000000E+00  0.00000000E+00
  0.00000000E+00  0.00000000E+00
MxBond                                     I                2
NBond                                      I   N=           5
           1           2           2           2           1
IBond                                      I   N=          10
           2           0           1           3           2           4
           3           5           4           0
RBond                                      R   N=          10
  1.00000000E+00  0.00000000E+00  1.00000000E+00  1.00000000E+00  1.00000000E+00
  1.00000000E+00  1.00000000E+00  2.00000000E+00  2.00000000E+00  0.00000000E+00
Virial Ratio                               R      2.002385799869316E+00
SCF Energy                                 R     -2.795017909980668E+02
MP2 Energy                                 R     -2.804465266765021E+02
Total Energy                               R     -2.804465266765021E+02
Post-SCF wavefunction norm                 R      1.120162984865874E+00
RMS Density                                R      3.817910395739171E-09
Job Status                                 I                1
Nuclear derivative order                   I                0
External E-field                           R   N=          35
  0.00000000E+00  0.00000000E+00  0.00000000E+00  0.00000000E+00  0.00000000E+00
  0.00000000E+00  0.00000000E+00  0.00000000E+00  0.00000000E+00  0.00000000E+00
  0.00000000E+00  0.00000000E+00  0.00000000E+00  0.00000000E+00  0.00000000E+00
  0.00000000E+00  0.00000000E+00  0.00000000E+00  0.00000000E+00  0.00000000E+00
  0.00000000E+00  0.00000000E+00  0.00000000E+00  0.00000000E+00  0.00000000E+00
  0.00000000E+00  0.00000000E+00  0.00000000E+00  0.00000000E+00  0.00000000E+00
  0.00000000E+00  0.00000000E+00  0.00000000E+00  0.00000000E+00  0.00000000E+00
IOpCl                                      I                0
IROHF                                      I                0
Alpha Orbital Energies                     R   N=         207
 -2.06912358E+01 -2.06843900E+01 -2.06588901E+01 -1.58129358E+01 -1.62396925E+00
 -1.49424320E+00 -1.25475073E+00 -9.48005293E-01 -7.71643380E-01 -7.60764922E-01
 -7.11557509E-01 -6.79955573E-01 -6.20013840E-01 -5.87024743E-01 -4.84911267E-01
 -4.72502383E-01  2.93622328E-02  7.17407440E-02  8.59498903E-02  1.01800338E-01
  1.33696892E-01  1.34076435E-01  1.44119365E-01  1.54407655E-01  1.78334411E-01
  1.94415026E-01  2.00020229E-01  2.06231906E-01  2.20900505E-01  2.35381178E-01
  2.37402337E-01  2.67173193E-01  2.93428593E-01  3.04259802E-01  3.09737396E-01
  3.43643850E-01  3.49247564E-01  3.87127726E-01  4.20020984E-01  4.32530436E-01
  5.26911776E-01  5.29116475E-01  5.58938006E-01  5.82293897E-01  6.25691032E-01
  6.38525303E-01  6.74194654E-01  6.83967063E-01  7.06178447E-01  7.12206142E-01
  7.19689109E-01  7.30668400E-01  7.45166925E-01  7.88984291E-01  7.89214405E-01
  8.08974883E-01  8.13463704E-01  8.32083259E-01  8.68972787E-01  9.07015476E-01
  9.23785878E-01  9.25135399E-01  9.59556669E-01  9.78368456E-01  9.82812267E-01
  1.01515415E+00  1.05264352E+00  1.05536939E+00  1.08192880E+00  1.11732653E+00
  1.13775955E+00  1.18879492E+00  1.22094489E+00  1.23070965E+00  1.33821012E+00
  1.34700712E+00  1.38770532E+00  1.45088047E+00  1.48887236E+00  1.51353977E+00
  1.53906137E+00  1.56728758E+00  1.58001487E+00  1.61664602E+00  1.66476928E+00
  1.66936034E+00  1.70367044E+00  1.78700316E+00  1.83215701E+00  1.83300521E+00
  1.87954692E+00  1.90876825E+00  1.95767854E+00  1.99001341E+00  2.00789168E+00
  2.07566039E+00  2.11502376E+00  2.13194631E+00  2.15054429E+00  2.22161063E+00
  2.26541067E+00  2.26723498E+00  2.28754272E+00  2.31496036E+00  2.34700445E+00
  2.38442364E+00  2.42003400E+00  2.42295748E+00  2.45519453E+00  2.46345391E+00
  2.47360218E+00  2.50408925E+00  2.58853823E+00  2.59350524E+00  2.61571091E+00
  2.62963002E+00  2.63363502E+00  2.67054350E+00  2.75627667E+00  2.82011620E+00
  2.86788604E+00  2.89120336E+00  2.89449790E+00  2.92054408E+00  2.96252191E+00
  3.02781347E+00  3.06738761E+00  3.12360679E+00  3.19772821E+00  3.23132008E+00
  3.31974664E+00  3.34028962E+00  3.51150214E+00  3.65609239E+00  3.83994030E+00
  3.84983337E+00  4.15397849E+00  4.15440251E+00  4.18416991E+00  4.25592671E+00
  4.36479582E+00  4.38953365E+00  4.46563817E+00  4.50730747E+00  4.66545892E+00
  4.68379366E+00  4.80694126E+00  4.82385437E+00  4.83411321E+00  4.89598605E+00
  5.02122395E+00  5.07803217E+00  5.10361525E+00  5.15015995E+00  5.19112434E+00
  5.23271065E+00  5.27447467E+00  5.31207603E+00  5.33269583E+00  5.35277705E+00
  5.61155200E+00  5.67378147E+00  5.77606998E+00  5.81057211E+00  5.95680573E+00
  6.16248262E+00  6.30531791E+00  6.34269956E+00  6.39834159E+00  6.49336240E+00
  6.50583357E+00  6.61163626E+00  6.66681160E+00  6.69604519E+00  6.75295997E+00
  6.76621217E+00  6.82984436E+00  6.89768432E+00  6.99576228E+00  7.05776577E+00
  7.06527334E+00  7.09182467E+00  7.12314377E+00  7.15899220E+00  7.18097940E+00
  7.22344775E+00  7.24172084E+00  7.31178059E+00  7.32591218E+00  7.34694466E+00
  7.39822150E+00  7.41040741E+00  7.48406842E+00  7.60913036E+00  7.61242746E+00
  7.62801735E+00  7.66586789E+00  7.78314647E+00  7.88630359E+00  8.09059105E+00
  8.30866553E+00  8.42683901E+00  8.54609798E+00  1.33982093E+01  1.43988148E+01
  1.51298531E+01  1.61505167E+01
Alpha MO coefficients                      R   N=       42849
  9.14145353E-05 -7.82220104E-04 -8.22593675E-04 -6.52325355E-06 -3.95811940E-05
 -2.13282052E-05  0.00000000E+00 -2.75209437E-05  1.46635715E-04  0.00000000E+00
  1.06014780E-04  7.43877088E-05  0.00000000E+00  3.56371947E-05  0.00000000E+00
  0.00000000E+00 -3.35878571E-05  2.72162306E-05  1.00633224E-06  0.00000000E+00
  0.00000000E+00 -1.13254267E-04  1.07820404E-04  4.37734522E-03 -2.67573448E-04
  3.46741085E-07  1.78238178E-03  1.95711111E-03  1.06917313E-04  4.03049337E-06
  0.00000000E+00 -6.15532575E-04  5.77000235E-06  0.00000000E+00 -1.12845501E-03
  9.00152878E-04  0.00000000E+00 -4.21392636E-04  6.86499124E-05  0.00000000E+00
  2.91965800E-05  0.00000000E+00  0.00000000E+00 -5.62688305E-05  4.49014673E-06
 -3.90723140E-04  0.00000000E+00  0.00000000E+00  7.35442559E-04 -2.60063688E-05
 -4.59946345E-04  0.00000000E+00  0.00000000E+00  2.48094004E-04 -2.41180300E-05
  0.00000000E+00  8.05090424E-05  1.12913950E-05  0.00000000E+00  0.00000000E+00
 -1.10183543E-04 -5.00486132E-06  0.00000000E+00  2.53441292E-04 -2.80248460E-05
  0.00000000E+00  0.00000000E+00 -3.64191496E-04  6.04303465E-05  9.76915436E-01
 -9.21241786E-03  4.33141173E-02  2.03892791E-03 -9.81392248E-04  1.50423279E-03
 -1.35780371E-03  0.00000000E+00 -1.44826053E-03  1.38638818E-03  0.00000000E+00
  3.45492164E-05 -1.22753724E-03  0.00000000E+00 -1.50880797E-04 -1.90184864E-05
  0.00000000E+00  4.76324120E-05  0.00000000E+00  0.00000000E+00 -3.40718605E-05
  1.91261975E-05  7.45119911E-04  0.00000000E+00  0.00000000E+00 -2.45459416E-04
 -3.86257932E-04 -3.43883082E-04  0.00000000E+00  0.00000000E+00 -3.24848908E-04
 -4.09692562E-04  0.00000000E+00  4.78728687E-05 -4.97748134E-05  0.00000000E+00
  0.00000000E+00 -4.02379849E-05 -1.45308135E-05  0.00000000E+00  2.35947685E-05
  2.54514939E-05  0.00000000E+00  0.00000000E+00 -3.06650631E-04 -1.39749201E-04
  3.88005846E-05  4.49799908E-05 -2.62640535E-04 -7.28213556E-04 -1.48952545E-04
 -2.70415680E-05 -9.62842905E-05  0.00000000E+00  2.69341494E-04  7.02381316E-04
  0.00000000E+00 -8.68496726E-04 -5.39988644E-04  0.00000000E+00 -1.33744107E-04
 -3.24208298E-05  0.00000000E+00 -1.82920895E-05  0.00000000E+00  0.00000000E+00
 -2.97656326E-05  1.50842950E-05 -3.25215464E-04  0.00000000E+00  0.00000000E+00
 -8.22244928E-04  1.31904852E-04 -3.59798700E-05  0.00000000E+00  0.00000000E+00
  1.16956261E-04 -1.09248170E-04  0.00000000E+00 -2.08055281E-05 -1.19423133E-04
  0.00000000E+00  0.00000000E+00 -6.34801967E-05 -1.36795883E-04  0.00000000E+00
  2.77243286E-06 -1.49833689E-04  0.00000000E+00  0.00000000E+00  4.38818853E-05
 -4.18612836E-04 -2.46419771E-03  1.20498276E-04 -1.18313858E-04 -2.70228317E-04
  1.24668359E-04 -7.64168439E-06 -2.73546383E-05  0.00000000E+00  6.80139287E-05
  1.61676724E-04  0.00000000E+00  2.29066873E-04  2.27848144E-04  0.00000000E+00
  1.29104175E-04  2.63169537E-05  0.00000000E+00 -3.33171664E-06  0.00000000E+00
  0.00000000E+00 -1.77543752E-05  8.80660303E-07  7.63006678E-07  0.00000000E+00
  0.00000000E+00  7.95833680E-05  8.91939986E-05 -1.03914323E-04  0.00000000E+00
  0.00000000E+00  1.62843610E-04  1.72771268E-04  0.00000000E+00  1.58788897E-05
 -3.54519324E-06  0.00000000E+00  0.00000000E+00 -4.24826994E-06 -1.20798872E-05
  0.00000000E+00 -3.38606553E-05  4.47034416E-05  0.00000000E+00  0.00000000E+00
  8.27786562E-05  9.07612371E-05  3.33107332E-05 -9.84589418E-04 -4.96553660E-04
 -1.19570142E-05 -2.40304832E-05  1.70496635E-05  0.00000000E+00 -2.82969651E-06
  2.69166291E-04  0.00000000E+00 -4.79560373E-05  1.35351570E-04  0.00000000E+00
  2.32941378E-05  0.00000000E+00  0.00000000E+00  1.46792284E-05  1.32826847E-05
 -3.02358982E-05  0.00000000E+00  0.00000000E+00  1.44195567E-05  4.08772052E-05
  1.06995678E-04  8.38558313E-05 -2.89162666E-05  7.40708023E-04  6.63496729E-04
  9.87644540E-06  2.71133676E-06  0.00000000E+00 -7.06100153E-05  1.18450005E-05
  0.00000000E+00  3.93527951E-04  9.03251573E-04  0.00000000E+00  1.24461535E-05
  8.65775558E-05  0.00000000E+00 -2.07401857E-06  0.00000000E+00  0.00000000E+00
 -4.81354894E-07 -6.84262560E-06 -3.61508332E-05  0.00000000E+00  0.00000000E+00
 -1.34502324E-05  9.18923376E-05 -2.18971658E-05  0.00000000E+00  0.00000000E+00
 -2.73643573E-04 -1.36247699E-04  0.00000000E+00  9.63468428E-06  6.14286992E-06
  0.00000000E+00  0.00000000E+00  2.55367861E-06 -1.79056208E-05  0.00000000E+00
 -4.38690376E-05 -3.83610179E-05  0.00000000E+00  0.00000000E+00 -8.45173980E-05
  2.37581862E-05  2.50288573E-03  3.91681381E-05  8.62037662E-05 -3.39187876E-05
 -4.80726940E-04  7.32894707E-06  1.58049921E-05  0.00000000E+00 -6.27561399E-05
 -5.42745030E-05  0.00000000E+00  2.45106538E-04 -1.98846549E-04  0.00000000E+00
 -1.92230816E-04 -6.56973663E-05  0.00000000E+00 -8.50678555E-06  0.00000000E+00
  0.00000000E+00  2.28141506E-05  1.96273623E-05  3.40840384E-06  0.00000000E+00
  0.00000000E+00 -1.20198349E-04 -4.49945708E-05  8.01175826E-07  0.00000000E+00
  0.00000000E+00 -2.24262400E-04 -2.17154756E-04  0.00000000E+00  2.98626544E-06
 -9.88491177E-07  0.00000000E+00  0.00000000E+00  1.34190515E-06 -1.30351977E-05
  0.00000000E+00 -4.47996458E-05  5.75225320E-06  0.00000000E+00  0.00000000E+00
 -7.58801741E-05  1.86239048E-04  2.58784362E-04  1.46595209E-03 -7.78045036E-05
 -1.53134866E-03  4.12538878E-04 -1.44323926E-04  7.76381947E-07  0.00000000E+00
 -2.09246720E-03 -4.01538757E-04  0.00000000E+00  1.01481575E-03  7.46689209E-04
  0.00000000E+00 -1.71448497E-04  5.82810443E-05  0.00000000E+00 -1.23404652E-04
  0.00000000E+00  0.00000000E+00  2.43452615E-04  9.30703449E-05 -4.41699370E-04
  0.00000000E+00  0.00000000E+00  9.01350151E-04 -7.02565774E-05  1.14689234E-05
  0.00000000E+00  0.00000000E+00 -3.32459855E-04 -1.24877394E-04  0.00000000E+00
 -1.10775698E-06  1.56085751E-05  0.00000000E+00  0.00000000E+00  1.88049223E-05
  1.33599314E-05  0.00000000E+00  1.64262359E-04 -7.18915001E-05  0.00000000E+00
  0.00000000E+00 -2.40816635E-04  4.36342101E-05  9.76649973E-01 -9.84763229E-03
  4.35676044E-02  4.47917814E-03 -4.58749816E-04  2.14974618E-03  4.78400572E-04
  0.00000000E+00 -2.38704725E-03 -6.01098212E-04  0.00000000E+00  1.13218257E-03
 -2.60218904E-06  0.00000000E+00  3.06761583E-06 -4.37592766E-05  0.00000000E+00
 -2.32158599E-04  0.00000000E+00  0.00000000E+00  1.03019438E-04  3.12040552E-05
  3.91158554E-04  0.00000000E+00  0.00000000E+00 -8.36312191E-04 -4.16561902E-04
 -1.55369947E-04  0.00000000E+00  0.00000000E+00  2.54042253E-04  1.79933159E-05
  0.00000000E+00  5.24968473E-05  1.76222290E-05  0.00000000E+00  0.00000000E+00
 -2.22411715E-05 -1.32580627E-05  0.00000000E+00  1.37827159E-04  8.83737641E-06
  0.00000000E+00  0.00000000E+00 -1.91099526E-04 -1.39585163E-04  4.81905564E-04
  2.22850145E-03  1.48714491E-04  9.59360141E-06 -4.54436234E-05 -2.44529913E-04
  0.00000000E+00  4.86389423E-05 -1.30865262E-03  0.00000000E+00  2.55037775E-04
 -3.46065718E-04  0.00000000E+00  1.77192598E-07  0.00000000E+00  0.00000000E+00
  7.63755796E-05  1.97291590E-07 -1.46976324E-04  0.00000000E+00  0.00000000E+00
 -5.36260122E-04  2.26066559E-05  9.76829106E-01 -9.14704245E-03  4.34600558E-02
 -4.85169441E-06 -1.06162679E-03 -1.53054539E-03  1.47473070E-03  0.00000000E+00
  1.53762811E-03 -1.30092863E-03  0.00000000E+00 -6.24000825E-04 -1.00604646E-03
  0.00000000E+00  6.25336576E-05  4.95090565E-06  0.00000000E+00  2.56148836E-05
  0.00000000E+00  0.00000000E+00 -1.17240815E-04  1.13692824E-05  7.69819506E-04
  0.00000000E+00  0.00000000E+00 -2.14290138E-04 -2.83670524E-04 -2.61692265E-04
  0.00000000E+00  0.00000000E+00  2.08967447E-04  1.49841534E-04  0.00000000E+00
 -6.41824540E-05 -8.25811484E-07  0.00000000E+00  0.00000000E+00  2.06331060E-05
  1.00983079E-05  0.00000000E+00  7.11428471E-06  1.32662635E-04  0.00000000E+00
  0.00000000E+00  2.85382644E-04  8.33302692E-05 -4.46701070E-03 -2.11223165E-04