title                                                                   
SP        RMP2-FC                                                     Aug-CC-pVTZ         
Number of atoms                            I                5
Info1-9                                    I   N=           9
          33          24           0           0           0         110
           1           2           1
Full Title                                 C   N=           1
title       
Route                                      C   N=           4
#p SP mp2/aug-cc-pvtz density=current           
Charge                                     I                0
Multiplicity                               I                1
Number of electrons                        I               32
Number of alpha electrons                  I               16
Number of beta electrons                   I               16
Number of basis functions                  I              207
Number of independent functions            I              207
Number of point charges in /Mol/           I                0
Number of translation vectors              I                0
Atomic numbers                             I   N=           5
           1           8           8           7           8
Nuclear charges                            R   N=           5
  1.00000000E+00  8.00000000E+00  8.00000000E+00  7.00000000E+00  8.00000000E+00
Current cartesian coordinates              R   N=          15
  2.87298222E+00  3.21178294E+00  8.84279116E-32  2.70874407E+00  1.38806496E+00
  4.84344808E-32  2.43735311E-17  1.27221624E+00  3.32209784E-32 -4.71519369E-01
 -1.44386132E+00 -7.03285736E-32 -2.65528739E+00 -1.79837540E+00  1.61461604E-32
Number of symbols in /Mol/                 I                0
Force Field                                I                0
Atom Types                                 C   N=           5
                                                            
Int Atom Types                             I   N=           5
           0           0           0           0           0
MM charges                                 R   N=           5
  0.00000000E+00  0.00000000E+00  0.00000000E+00  0.00000000E+00  0.00000000E+00
Integer atomic weights                     I   N=           5
           1          16          16          14          16
Real atomic weights                        R   N=           5
  1.00782504E+00  1.59949146E+01  1.59949146E+01  1.40030740E+01  1.59949146E+01
Atom fragment info                         I   N=           5
           0           0           0           0           0
Atom residue num                           I   N=           5
           0           0           0           0           0
Nuclear spins                              I   N=           5
           1           0           0           2           0
Nuclear ZEff                               R   N=           5
 -1.00000000E+00 -5.60000000E+00 -5.60000000E+00 -4.55000000E+00 -5.60000000E+00
Nuclear ZNuc                               R   N=           5
  1.00000000E+00  8.00000000E+00  8.00000000E+00  7.00000000E+00  8.00000000E+00
Nuclear QMom                               R   N=           5
  0.00000000E+00  0.00000000E+00  0.00000000E+00  2.04400000E+00  0.00000000E+00
Nuclear GFac                               R   N=           5
  2.79284600E+00  0.00000000E+00  0.00000000E+00  4.03761000E-01  0.00000000E+00
MicOpt                                     I   N=           5
          -1          -1          -1          -1          -1
Number of residues                         I                0
Number of secondary structures             I                0
SymInf integers                            I   N=          26
           1           2           1           1           1           1
           1          -1           0           0           0           0
           0           0           0           0           0           0
           0           0           0           0           0           0
           0           0
RotTr to input orientation                 R   N=          12
 -9.95969389E-01 -9.75105450E-17 -8.96937877E-02  8.96937877E-02 -7.40897525E-17
 -9.95969389E-01  9.04721275E-17 -1.00000000E+00  8.25372157E-17  2.57332537E+00
  0.00000000E+00  3.45652615E+00
Number of contracted shells                I               65
Number of primitive shells                 I              119
Pure/Cartesian d shells                    I                0
Pure/Cartesian f shells                    I                0
Highest angular momentum                   I                3
Largest degree of contraction              I                7
Shell types                                I   N=          65
           0           0           0           0           1           1
           1          -2          -2           0           0           0
           0           0           1           1           1           1
          -2          -2          -2          -3          -3           0
           0           0           0           0           1           1
           1           1          -2          -2          -2          -3
          -3           0           0           0           0           0
           1           1           1           1          -2          -2
          -2          -3          -3           0           0           0
           0           0           1           1           1           1
          -2          -2          -2          -3          -3
Number of primitives per shell             I   N=          65
           3           1           1           1           1           1
           1           1           1           7           6           1
           1           1           3           1           1           1
           1           1           1           1           1           7
           6           1           1           1           3           1
           1           1           1           1           1           1
           1           7           6           1           1           1
           3           1           1           1           1           1
           1           1           1           7           6           1
           1           1           3           1           1           1
           1           1           1           1           1
Shell to atom map                          I   N=          65
           1           1           1           1           1           1
           1           1           1           2           2           2
           2           2           2           2           2           2
           2           2           2           2           2           3
           3           3           3           3           3           3
           3           3           3           3           3           3
           3           4           4           4           4           4
           4           4           4           4           4           4
           4           4           4           5           5           5
           5           5           5           5           5           5
           5           5           5           5           5
Primitive exponents                        R   N=         119
  3.38700000E+01  5.09500000E+00  1.15900000E+00  3.25800000E-01  1.02700000E-01
  2.52600000E-02  1.40700000E+00  3.88000000E-01  1.02000000E-01  1.05700000E+00
  2.47000000E-01  1.53300000E+04  2.29900000E+03  5.22400000E+02  1.47300000E+02
  4.75500000E+01  1.67600000E+01  6.20700000E+00  5.22400000E+02  1.47300000E+02
  4.75500000E+01  1.67600000E+01  6.20700000E+00  6.88200000E-01  1.75200000E+00
  2.38400000E-01  7.37600000E-02  3.44600000E+01  7.74900000E+00  2.28000000E+00
  7.15600000E-01  2.14000000E-01  5.97400000E-02  2.31400000E+00  6.45000000E-01
  2.14000000E-01  1.42800000E+00  5.00000000E-01  1.53300000E+04  2.29900000E+03
  5.22400000E+02  1.47300000E+02  4.75500000E+01  1.67600000E+01  6.20700000E+00
  5.22400000E+02  1.47300000E+02  4.75500000E+01  1.67600000E+01  6.20700000E+00
  6.88200000E-01  1.75200000E+00  2.38400000E-01  7.37600000E-02  3.44600000E+01
  7.74900000E+00  2.28000000E+00  7.15600000E-01  2.14000000E-01  5.97400000E-02
  2.31400000E+00  6.45000000E-01  2.14000000E-01  1.42800000E+00  5.00000000E-01
  1.14200000E+04  1.71200000E+03  3.89300000E+02  1.10000000E+02  3.55700000E+01
  1.25400000E+01  4.64400000E+00  3.89300000E+02  1.10000000E+02  3.55700000E+01
  1.25400000E+01  4.64400000E+00  5.11800000E-01  1.29300000E+00  1.78700000E-01
  5.76000000E-02  2.66300000E+01  5.94800000E+00  1.74200000E+00  5.55000000E-01
  1.72500000E-01  4.91000000E-02  1.65400000E+00  4.69000000E-01  1.51000000E-01
  1.09300000E+00  3.64000000E-01  1.53300000E+04  2.29900000E+03  5.22400000E+02
  1.47300000E+02  4.75500000E+01  1.67600000E+01  6.20700000E+00  5.22400000E+02
  1.47300000E+02  4.75500000E+01  1.67600000E+01  6.20700000E+00  6.88200000E-01
  1.75200000E+00  2.38400000E-01  7.37600000E-02  3.44600000E+01  7.74900000E+00
  2.28000000E+00  7.15600000E-01  2.14000000E-01  5.97400000E-02  2.31400000E+00
  6.45000000E-01  2.14000000E-01  1.42800000E+00  5.00000000E-01
Contraction coefficients                   R   N=         119
  2.54948632E-02  1.90362766E-01  8.52162022E-01  1.00000000E+00  1.00000000E+00
  1.00000000E+00  1.00000000E+00  1.00000000E+00  1.00000000E+00  1.00000000E+00
  1.00000000E+00  5.19808943E-04  4.02025621E-03  2.07128267E-02  8.10105536E-02
  2.35962985E-01  4.42653446E-01  3.57064423E-01 -4.42115008E-05 -1.22591041E-03
 -1.05517725E-02 -6.74452633E-02 -1.71198607E-01  1.07329856E+00  1.00000000E+00
  1.00000000E+00  1.00000000E+00  4.11634896E-02  2.57762836E-01  8.02419274E-01
  1.00000000E+00  1.00000000E+00  1.00000000E+00  1.00000000E+00  1.00000000E+00
  1.00000000E+00  1.00000000E+00  1.00000000E+00  5.19808943E-04  4.02025621E-03
  2.07128267E-02  8.10105536E-02  2.35962985E-01  4.42653446E-01  3.57064423E-01
 -4.42115008E-05 -1.22591041E-03 -1.05517725E-02 -6.74452633E-02 -1.71198607E-01
  1.07329856E+00  1.00000000E+00  1.00000000E+00  1.00000000E+00  4.11634896E-02
  2.57762836E-01  8.02419274E-01  1.00000000E+00  1.00000000E+00  1.00000000E+00
  1.00000000E+00  1.00000000E+00  1.00000000E+00  1.00000000E+00  1.00000000E+00
  5.34563860E-04  4.13435660E-03  2.12335358E-02  8.25006224E-02  2.38138871E-01
  4.42551547E-01  3.53757422E-01 -4.89867350E-05 -1.19527323E-03 -1.03490714E-02
 -6.48680190E-02 -1.71552477E-01  1.07289568E+00  1.00000000E+00  1.00000000E+00
  1.00000000E+00  3.98072123E-02  2.49002660E-01  8.10479727E-01  1.00000000E+00
  1.00000000E+00  1.00000000E+00  1.00000000E+00  1.00000000E+00  1.00000000E+00
  1.00000000E+00  1.00000000E+00  5.19808943E-04  4.02025621E-03  2.07128267E-02
  8.10105536E-02  2.35962985E-01  4.42653446E-01  3.57064423E-01 -4.42115008E-05
 -1.22591041E-03 -1.05517725E-02 -6.74452633E-02 -1.71198607E-01  1.07329856E+00
  1.00000000E+00  1.00000000E+00  1.00000000E+00  4.11634896E-02  2.57762836E-01
  8.02419274E-01  1.00000000E+00  1.00000000E+00  1.00000000E+00  1.00000000E+00
  1.00000000E+00  1.00000000E+00  1.00000000E+00  1.00000000E+00
Coordinates of each shell                  R   N=         195
  2.87298222E+00  3.21178294E+00  6.03110942E-32  2.87298222E+00  3.21178294E+00
  6.03110942E-32  2.87298222E+00  3.21178294E+00  6.03110942E-32  2.87298222E+00
  3.21178294E+00  6.03110942E-32  2.87298222E+00  3.21178294E+00  6.03110942E-32
  2.87298222E+00  3.21178294E+00  6.03110942E-32  2.87298222E+00  3.21178294E+00
  6.03110942E-32  2.87298222E+00  3.21178294E+00  6.03110942E-32  2.87298222E+00
  3.21178294E+00  6.03110942E-32  2.70874407E+00  1.38806496E+00  3.67288677E-32
  2.70874407E+00  1.38806496E+00  3.67288677E-32  2.70874407E+00  1.38806496E+00
  3.67288677E-32  2.70874407E+00  1.38806496E+00  3.67288677E-32  2.70874407E+00
  1.38806496E+00  3.67288677E-32  2.70874407E+00  1.38806496E+00  3.67288677E-32
  2.70874407E+00  1.38806496E+00  3.67288677E-32  2.70874407E+00  1.38806496E+00
  3.67288677E-32  2.70874407E+00  1.38806496E+00  3.67288677E-32  2.70874407E+00
  1.38806496E+00  3.67288677E-32  2.70874407E+00  1.38806496E+00  3.67288677E-32
  2.70874407E+00  1.38806496E+00  3.67288677E-32  2.70874407E+00  1.38806496E+00
  3.67288677E-32  2.70874407E+00  1.38806496E+00  3.67288677E-32 -9.92559868E-18
  1.27221624E+00  1.56180707E-32 -9.92559868E-18  1.27221624E+00  1.56180707E-32
 -9.92559868E-18  1.27221624E+00  1.56180707E-32 -9.92559868E-18  1.27221624E+00
  1.56180707E-32 -9.92559868E-18  1.27221624E+00  1.56180707E-32 -9.92559868E-18
  1.27221624E+00  1.56180707E-32 -9.92559868E-18  1.27221624E+00  1.56180707E-32
 -9.92559868E-18  1.27221624E+00  1.56180707E-32 -9.92559868E-18  1.27221624E+00
  1.56180707E-32 -9.92559868E-18  1.27221624E+00  1.56180707E-32 -9.92559868E-18
  1.27221624E+00  1.56180707E-32 -9.92559868E-18  1.27221624E+00  1.56180707E-32
 -9.92559868E-18  1.27221624E+00  1.56180707E-32 -9.92559868E-18  1.27221624E+00
  1.56180707E-32 -4.71519369E-01 -1.44386132E+00 -2.11524883E-32 -4.71519369E-01
 -1.44386132E+00 -2.11524883E-32 -4.71519369E-01 -1.44386132E+00 -2.11524883E-32
 -4.71519369E-01 -1.44386132E+00 -2.11524883E-32 -4.71519369E-01 -1.44386132E+00
 -2.11524883E-32 -4.71519369E-01 -1.44386132E+00 -2.11524883E-32 -4.71519369E-01
 -1.44386132E+00 -2.11524883E-32 -4.71519369E-01 -1.44386132E+00 -2.11524883E-32
 -4.71519369E-01 -1.44386132E+00 -2.11524883E-32 -4.71519369E-01 -1.44386132E+00
 -2.11524883E-32 -4.71519369E-01 -1.44386132E+00 -2.11524883E-32 -4.71519369E-01
 -1.44386132E+00 -2.11524883E-32 -4.71519369E-01 -1.44386132E+00 -2.11524883E-32
 -4.71519369E-01 -1.44386132E+00 -2.11524883E-32 -2.65528739E+00 -1.79837540E+00
 -4.13773979E-32 -2.65528739E+00 -1.79837540E+00 -4.13773979E-32 -2.65528739E+00
 -1.79837540E+00 -4.13773979E-32 -2.65528739E+00 -1.79837540E+00 -4.13773979E-32
 -2.65528739E+00 -1.79837540E+00 -4.13773979E-32 -2.65528739E+00 -1.79837540E+00
 -4.13773979E-32 -2.65528739E+00 -1.79837540E+00 -4.13773979E-32 -2.65528739E+00
 -1.79837540E+00 -4.13773979E-32 -2.65528739E+00 -1.79837540E+00 -4.13773979E-32
 -2.65528739E+00 -1.79837540E+00 -4.13773979E-32 -2.65528739E+00 -1.79837540E+00
 -4.13773979E-32 -2.65528739E+00 -1.79837540E+00 -4.13773979E-32 -2.65528739E+00
 -1.79837540E+00 -4.13773979E-32 -2.65528739E+00 -1.79837540E+00 -4.13773979E-32
Num ILSW                                   I              100
ILSW                                       I   N=         100
           0           0           0           0           2           0
           0           0           0           0           0          -1
           5           0           0           0           0           0
           0           0           0           0           0           0
           1           0           0           0           0           0
           0           0      100000           0          -1           0
           0           0           0           0           0           0
           0           0           0           1           0           0
           0 -2000000000           1           0           0           0
           0           0           4          52           0           0
           0           0           0           0           0           0
           0           0           0           5           0           1
           0           0           0           0           0           0
           0           0           0           0           0           0
           0           0           0           0           0           0
           0           0           0           0           0           0
           0           0           0           0
Num RLSW                                   I               52
RLSW                                       R   N=          52
  1.00000000E+00  1.00000000E+00  1.00000000E+00  1.00000000E+00  1.00000000E+00
  0.00000000E+00  0.00000000E+00  1.00000000E+00  0.00000000E+00  0.00000000E+00
  0.00000000E+00  0.00000000E+00  1.00000000E+00  0.00000000E+00  0.00000000E+00
  0.00000000E+00  0.00000000E+00  1.00000000E+00  0.00000000E+00  0.00000000E+00
  0.00000000E+00  0.00000000E+00  1.00000000E+00  0.00000000E+00  0.00000000E+00
  0.00000000E+00  0.00000000E+00  1.00000000E+00  0.00000000E+00  0.00000000E+00
  0.00000000E+00  0.00000000E+00  1.00000000E+00  0.00000000E+00  0.00000000E+00
  0.00000000E+00  0.00000000E+00  0.00000000E+00  1.00000000E+00  1.00000000E+00
  0.00000000E+00  1.00000000E+00  0.00000000E+00  0.00000000E+00  0.00000000E+00
  0.00000000E+00  0.00000000E+00  0.00000000E+00  0.00000000E+00  0.00000000E+00
  0.00000000E+00  0.00000000E+00
MxBond                                     I                2
NBond                                      I   N=           5
           1           2           2           2           1
IBond                                      I   N=          10
           2           0           1           3           2           4
           3           5           4           0
RBond                                      R   N=          10
  1.00000000E+00  0.00000000E+00  1.00000000E+00  1.00000000E+00  1.00000000E+00
  1.00000000E+00  1.00000000E+00  2.00000000E+00  2.00000000E+00  0.00000000E+00
Virial Ratio                               R      2.002229270881617E+00
SCF Energy                                 R     -2.795031195464898E+02
MP2 Energy                                 R     -2.804465308909391E+02
Total Energy                               R     -2.804465308909391E+02
Post-SCF wavefunction norm                 R      1.119414547770105E+00
RMS Density                                R      3.610048700061388E-09
Job Status                                 I                1
Nuclear derivative order                   I                0
External E-field                           R   N=          35
  0.00000000E+00  0.00000000E+00  0.00000000E+00  0.00000000E+00  0.00000000E+00
  0.00000000E+00  0.00000000E+00  0.00000000E+00  0.00000000E+00  0.00000000E+00
  0.00000000E+00  0.00000000E+00  0.00000000E+00  0.00000000E+00  0.00000000E+00
  0.00000000E+00  0.00000000E+00  0.00000000E+00  0.00000000E+00  0.00000000E+00
  0.00000000E+00  0.00000000E+00  0.00000000E+00  0.00000000E+00  0.00000000E+00
  0.00000000E+00  0.00000000E+00  0.00000000E+00  0.00000000E+00  0.00000000E+00
  0.00000000E+00  0.00000000E+00  0.00000000E+00  0.00000000E+00  0.00000000E+00
IOpCl                                      I                0
IROHF                                      I                0
Alpha Orbital Energies                     R   N=         207
 -2.06897234E+01 -2.06839287E+01 -2.06582352E+01 -1.58124087E+01 -1.62473010E+00
 -1.50395643E+00 -1.25077126E+00 -9.48356064E-01 -7.75019513E-01 -7.60858111E-01
 -7.13747657E-01 -6.79477091E-01 -6.22387547E-01 -5.92059809E-01 -4.81511687E-01
 -4.72003750E-01  2.96577349E-02  7.17033696E-02  8.64044947E-02  1.01791652E-01
  1.33937901E-01  1.34803367E-01  1.44186626E-01  1.54618506E-01  1.78203557E-01
  1.93986891E-01  1.99726754E-01  2.06529087E-01  2.22425897E-01  2.37545682E-01
  2.44980022E-01  2.66251332E-01  2.93603986E-01  3.04047741E-01  3.10975394E-01
  3.44813672E-01  3.50531328E-01  3.87648038E-01  4.23112331E-01  4.31986170E-01
  5.27668635E-01  5.29683265E-01  5.58836458E-01  5.82197565E-01  6.26345103E-01
  6.38152499E-01  6.74367732E-01  6.84195326E-01  7.08026973E-01  7.10561620E-01
  7.25213511E-01  7.28896470E-01  7.44495459E-01  7.92234278E-01  7.92977689E-01
  8.10317676E-01  8.13078032E-01  8.32063046E-01  8.68447903E-01  9.10316808E-01
  9.22326608E-01  9.28036358E-01  9.55764362E-01  9.78559143E-01  9.85932582E-01
  1.01655640E+00  1.05337615E+00  1.05437689E+00  1.08431927E+00  1.11985756E+00
  1.14423182E+00  1.19089572E+00  1.22075321E+00  1.23414182E+00  1.33934355E+00
  1.35163210E+00  1.38642439E+00  1.45414114E+00  1.48747535E+00  1.50749873E+00
  1.53919383E+00  1.56853122E+00  1.58101310E+00  1.61449005E+00  1.66609063E+00
  1.67239061E+00  1.70362940E+00  1.79549116E+00  1.83282567E+00  1.83514949E+00
  1.88037148E+00  1.91183493E+00  1.95632891E+00  1.99468443E+00  2.00375194E+00
  2.07882206E+00  2.12471051E+00  2.13236747E+00  2.15501844E+00  2.22543374E+00
  2.26624395E+00  2.26872229E+00  2.29079992E+00  2.31663973E+00  2.34995530E+00
  2.38374231E+00  2.42754837E+00  2.43187897E+00  2.45548219E+00  2.46258689E+00
  2.47928535E+00  2.50367765E+00  2.59202789E+00  2.59891832E+00  2.62380964E+00
  2.62974230E+00  2.64068736E+00  2.67608059E+00  2.75889566E+00  2.82582219E+00
  2.86128617E+00  2.89434452E+00  2.90329533E+00  2.93085813E+00  2.96288106E+00
  3.03715568E+00  3.06798186E+00  3.11740069E+00  3.22350074E+00  3.24222704E+00
  3.32299607E+00  3.33422037E+00  3.52507284E+00  3.64698623E+00  3.83865791E+00
  3.84930902E+00  4.15245991E+00  4.17029945E+00  4.18675742E+00  4.26015947E+00
  4.35683784E+00  4.39774649E+00  4.48390461E+00  4.51641005E+00  4.66501399E+00
  4.72129991E+00  4.80645521E+00  4.82232417E+00  4.83123140E+00  4.89753788E+00
  5.02492700E+00  5.07828315E+00  5.10712887E+00  5.14459039E+00  5.17998591E+00
  5.24535548E+00  5.27243503E+00  5.30883880E+00  5.33255993E+00  5.36030025E+00
  5.61745514E+00  5.67398837E+00  5.77532341E+00  5.86084413E+00  5.96715923E+00
  6.17356826E+00  6.27745738E+00  6.34144695E+00  6.39001431E+00  6.49223152E+00
  6.50512677E+00  6.60791094E+00  6.65505469E+00  6.69713212E+00  6.75615561E+00
  6.77319223E+00  6.83302467E+00  6.90032633E+00  7.03021818E+00  7.06960438E+00
  7.07887886E+00  7.10756666E+00  7.12798288E+00  7.16598779E+00  7.18996977E+00
  7.23039500E+00  7.24958995E+00  7.30953347E+00  7.32583063E+00  7.34815450E+00
  7.40437929E+00  7.45720381E+00  7.48670245E+00  7.62252170E+00  7.62526884E+00
  7.63604854E+00  7.67284914E+00  7.81049216E+00  7.89236193E+00  8.12553608E+00
  8.34004738E+00  8.42849350E+00  8.54791776E+00  1.34533859E+01  1.44209056E+01
  1.51908055E+01  1.61552405E+01
Alpha MO coefficients                      R   N=       42849
  8.56491525E-05 -6.20990790E-04 -6.87887231E-04  1.39783151E-07 -1.54461544E-05
 -2.53950668E-05  0.00000000E+00 -3.66647388E-05  3.23321165E-05  0.00000000E+00
  8.27168212E-05  1.87509849E-05  0.00000000E+00  2.72884462E-05  0.00000000E+00
  0.00000000E+00 -5.27980624E-05  1.80685234E-05 -1.11244256E-05  0.00000000E+00
  0.00000000E+00 -1.46934458E-04  1.16951164E-04  4.76468492E-03 -2.53067292E-04
  6.66681787E-07  1.72148784E-03  1.93269235E-03  1.14753580E-04  8.92395603E-06
  0.00000000E+00 -7.16599282E-04 -5.06908872E-05  0.00000000E+00 -1.24944893E-03
  7.69873970E-04  0.00000000E+00 -4.30043837E-04  5.36392129E-05  0.00000000E+00
  2.33114944E-05  0.00000000E+00  0.00000000E+00 -4.35851983E-05  5.49804386E-06
 -4.01615237E-04  0.00000000E+00  0.00000000E+00  7.84728709E-04 -1.98220723E-05
 -4.63684804E-04  0.00000000E+00  0.00000000E+00  2.58293917E-04 -8.46631669E-06
  0.00000000E+00  8.53124054E-05  1.33945906E-05  0.00000000E+00  0.00000000E+00
 -1.16694570E-04 -6.39979631E-06  0.00000000E+00  2.55127397E-04 -2.44437367E-05
  0.00000000E+00  0.00000000E+00 -3.46406081E-04  3.08522411E-05  9.76893805E-01
 -9.22208049E-03  4.33545899E-02  1.82080298E-03 -1.03702253E-03  1.55304912E-03
 -1.33654830E-03  0.00000000E+00 -1.52281282E-03  1.36053838E-03  0.00000000E+00
 -2.93605991E-05 -1.16756012E-03  0.00000000E+00 -1.62685899E-04 -1.57778124E-05
  0.00000000E+00  4.14042878E-05  0.00000000E+00  0.00000000E+00 -2.68209134E-05
  2.16569982E-05  7.72098633E-04  0.00000000E+00  0.00000000E+00 -2.71251724E-04
 -4.00587007E-04 -3.42122721E-04  0.00000000E+00  0.00000000E+00 -3.38469898E-04
 -3.87448017E-04  0.00000000E+00  5.13669858E-05 -4.74001603E-05  0.00000000E+00
  0.00000000E+00 -4.25453214E-05 -1.77898646E-05  0.00000000E+00  3.53811934E-05
  2.05228904E-05  0.00000000E+00  0.00000000E+00 -3.21411419E-04 -1.44080681E-04
  3.89751227E-05  4.62028221E-05 -2.62318407E-04 -7.24259855E-04 -1.74109685E-04
 -2.53702395E-05 -9.74433419E-05  0.00000000E+00  2.61550571E-04  7.13548983E-04
  0.00000000E+00 -8.28412596E-04 -4.68937207E-04  0.00000000E+00 -1.23407628E-04
 -3.03801257E-05  0.00000000E+00 -1.78064618E-05  0.00000000E+00  0.00000000E+00
 -2.99846794E-05  1.56626787E-05 -3.26788022E-04  0.00000000E+00  0.00000000E+00
 -8.29777774E-04  9.69848540E-05 -3.14811434E-05  0.00000000E+00  0.00000000E+00
  9.11839727E-05 -1.30398215E-04  0.00000000E+00 -1.93704799E-05 -1.19716518E-04
  0.00000000E+00  0.00000000E+00 -5.74582167E-05 -1.37989118E-04  0.00000000E+00
  4.73196842E-06 -1.53540455E-04  0.00000000E+00  0.00000000E+00  6.00102680E-05
 -4.10923748E-04 -2.94801869E-03  1.27574137E-04 -1.39340491E-04 -2.23700158E-04
  1.56438437E-04 -8.63891097E-06 -2.71862670E-05  0.00000000E+00  7.15963631E-05
  1.59840023E-04  0.00000000E+00  2.38483141E-04  1.87141351E-04  0.00000000E+00
  1.32279243E-04  2.35521840E-05  0.00000000E+00 -3.41070436E-06  0.00000000E+00
  0.00000000E+00 -1.80210868E-05  1.31795257E-06  1.22915040E-06  0.00000000E+00
  0.00000000E+00  8.19715867E-05  8.42682564E-05 -9.94589500E-05  0.00000000E+00
  0.00000000E+00  1.65321166E-04  1.59011913E-04  0.00000000E+00  1.59027360E-05
 -3.05500313E-06  0.00000000E+00  0.00000000E+00 -3.37930254E-06 -1.25246146E-05
  0.00000000E+00 -3.36975267E-05  4.47925294E-05  0.00000000E+00  0.00000000E+00
  8.24460567E-05  9.10386242E-05  4.05213665E-05 -1.00761294E-03 -4.91779145E-04
 -1.18528338E-05 -2.23891512E-05  1.50785013E-05  0.00000000E+00 -2.33487345E-06
  2.76716890E-04  0.00000000E+00 -4.34946498E-05  1.34149050E-04  0.00000000E+00
  2.64574556E-05  0.00000000E+00  0.00000000E+00  1.09391594E-05  1.12704058E-05
 -2.94673022E-05  0.00000000E+00  0.00000000E+00  1.11570853E-05  3.68610241E-05
  1.12633954E-04  8.90831514E-05 -2.84570424E-05  7.51803489E-04  6.48565377E-04
  1.01707085E-05  3.00289346E-06  0.00000000E+00 -7.61639929E-05  9.45784892E-06
  0.00000000E+00  3.41793292E-04  9.47089336E-04  0.00000000E+00  6.45192089E-06
  8.59120688E-05  0.00000000E+00 -2.68392533E-06  0.00000000E+00  0.00000000E+00
  1.89360814E-07 -5.20723608E-06 -3.48313008E-05  0.00000000E+00  0.00000000E+00
 -1.90167471E-05  8.21832664E-05 -2.21957080E-05  0.00000000E+00  0.00000000E+00
 -2.68297514E-04 -1.83641890E-04  0.00000000E+00  8.93792241E-06  6.54739750E-06
  0.00000000E+00  0.00000000E+00  3.46793113E-06 -1.86183173E-05  0.00000000E+00
 -4.02900165E-05 -4.07809357E-05  0.00000000E+00  0.00000000E+00 -8.21506454E-05
  2.05669418E-05  2.98671507E-03  3.32124388E-05  1.08660015E-04 -6.14791685E-05
 -4.72063863E-04  8.73191490E-06  1.53583417E-05  0.00000000E+00 -6.71425986E-05
 -5.61345399E-05  0.00000000E+00  2.43256274E-04 -2.08791856E-04  0.00000000E+00
 -1.85763872E-04 -6.71994571E-05  0.00000000E+00 -8.59765183E-06  0.00000000E+00
  0.00000000E+00  2.24129483E-05  2.01861231E-05  5.15069044E-06  0.00000000E+00
  0.00000000E+00 -1.19954606E-04 -4.94541985E-05 -4.93846139E-06  0.00000000E+00
  0.00000000E+00 -2.21149282E-04 -2.24778950E-04  0.00000000E+00  3.96077248E-06
 -4.43320581E-07  0.00000000E+00  0.00000000E+00  2.14377559E-06 -1.35898021E-05
  0.00000000E+00 -4.82174325E-05  2.80422440E-06  0.00000000E+00  0.00000000E+00
 -8.45958823E-05  1.86649260E-04  2.58524201E-04  1.46456883E-03 -7.75032913E-05
 -1.53643315E-03  4.06013538E-04 -1.44016091E-04 -9.85580764E-07  0.00000000E+00
 -2.09243048E-03 -4.23880310E-04  0.00000000E+00  1.04492823E-03  7.85461661E-04
  0.00000000E+00 -1.68626980E-04  5.71245041E-05  0.00000000E+00 -1.23248467E-04
  0.00000000E+00  0.00000000E+00  2.41619954E-04  9.82260213E-05 -4.43121754E-04
  0.00000000E+00  0.00000000E+00  9.00424017E-04 -5.33458357E-05  1.01640932E-05
  0.00000000E+00  0.00000000E+00 -3.38836202E-04 -1.28532713E-04  0.00000000E+00
 -9.15622146E-07  1.54900658E-05  0.00000000E+00  0.00000000E+00  1.85792739E-05
  1.31608404E-05  0.00000000E+00  1.62923246E-04 -7.24403975E-05  0.00000000E+00
  0.00000000E+00 -2.40913947E-04  4.02278777E-05  9.76647926E-01 -9.84755961E-03
  4.35693022E-02  4.50857253E-03 -4.45428220E-04  2.14438262E-03  4.97721891E-04
  0.00000000E+00 -2.37951020E-03 -6.25090559E-04  0.00000000E+00  1.13774593E-03
  2.77060773E-06  0.00000000E+00  4.08051946E-06 -4.26071312E-05  0.00000000E+00
 -2.32475978E-04  0.00000000E+00  0.00000000E+00  1.02049998E-04  3.38729601E-05
  3.90913349E-04  0.00000000E+00  0.00000000E+00 -8.28098931E-04 -4.34403142E-04
 -1.52320488E-04  0.00000000E+00  0.00000000E+00  2.53406068E-04  1.90254783E-05
  0.00000000E+00  5.21983761E-05  1.81879813E-05  0.00000000E+00  0.00000000E+00
 -2.17465107E-05 -1.37505243E-05  0.00000000E+00  1.38620897E-04  1.03977223E-05
  0.00000000E+00  0.00000000E+00 -1.87038268E-04 -1.46129623E-04  4.70897710E-04
  2.01341308E-03  7.72060776E-05  1.30839069E-05 -3.77868936E-05 -2.40319700E-04
  0.00000000E+00  1.28503223E-04 -1.25336594E-03  0.00000000E+00  3.29918032E-04
 -3.25009552E-04  0.00000000E+00 -1.98504175E-06  0.00000000E+00  0.00000000E+00
  8.15365942E-05  1.55717299E-05 -1.58165342E-04  0.00000000E+00  0.00000000E+00
 -5.35490416E-04 -3.94506286E-05  9.76814039E-01 -9.16278081E-03  4.34860809E-02
 -1.01036288E-05 -1.24711672E-03 -1.62019915E-03  1.41901008E-03  0.00000000E+00
  1.65851979E-03 -1.24793561E-03  0.00000000E+00 -4.16279633E-04 -8.51578316E-04
  0.00000000E+00  7.36409066E-05 -4.03558137E-05  0.00000000E+00  2.41692066E-05
  0.00000000E+00  0.00000000E+00 -1.09057975E-04 -5.44186355E-06  7.78957444E-04
  0.00000000E+00  0.00000000E+00 -2.48864155E-04 -2.38956179E-04 -2.47993185E-04
  0.00000000E+00  0.00000000E+00  1.17528945E-04  1.30466195E-04  0.00000000E+00
 -6.75281591E-05 -1.20663918E-06  0.00000000E+00  0.00000000E+00  2.24731165E-05
  8.51434615E-06  0.00000000E+00 -1.65925774E-05  1.23957550E-04  0.00000000E+00
  0.00000000E+00  2.72798732E-04  9.47902346E-05 -4.84847662E-03 -1.78927987E-04