title                                                                   
SP        RMP2-FC                                                     Aug-CC-pVTZ         
Number of atoms                            I                5
Info1-9                                    I   N=           9
          33          24           0           0           0         110
           1           2           1
Full Title                                 C   N=           1
title       
Route                                      C   N=           4
#p SP mp2/aug-cc-pvtz density=current           
Charge                                     I                0
Multiplicity                               I                1
Number of electrons                        I               32
Number of alpha electrons                  I               16
Number of beta electrons                   I               16
Number of basis functions                  I              207
Number of independent functions            I              207
Number of point charges in /Mol/           I                0
Number of translation vectors              I                0
Atomic numbers                             I   N=           5
           1           8           8           7           8
Nuclear charges                            R   N=           5
  1.00000000E+00  8.00000000E+00  8.00000000E+00  7.00000000E+00  8.00000000E+00
Current cartesian coordinates              R   N=          15
  2.91900716E+00  3.20199510E+00  1.23055795E-30  2.74734360E+00  1.37896107E+00
  1.88509493E-31 -1.39650112E-16  1.27266819E+00  6.20276247E-31 -4.82576209E-01
 -1.44146667E+00 -1.00003988E-30 -2.68996531E+00 -1.79059531E+00 -7.65101451E-31
Number of symbols in /Mol/                 I                0
Force Field                                I                0
Atom Types                                 C   N=           5
                                                            
Int Atom Types                             I   N=           5
           0           0           0           0           0
MM charges                                 R   N=           5
  0.00000000E+00  0.00000000E+00  0.00000000E+00  0.00000000E+00  0.00000000E+00
Integer atomic weights                     I   N=           5
           1          16          16          14          16
Real atomic weights                        R   N=           5
  1.00782504E+00  1.59949146E+01  1.59949146E+01  1.40030740E+01  1.59949146E+01
Atom fragment info                         I   N=           5
           0           0           0           0           0
Atom residue num                           I   N=           5
           0           0           0           0           0
Nuclear spins                              I   N=           5
           1           0           0           2           0
Nuclear ZEff                               R   N=           5
 -1.00000000E+00 -5.60000000E+00 -5.60000000E+00 -4.55000000E+00 -5.60000000E+00
Nuclear ZNuc                               R   N=           5
  1.00000000E+00  8.00000000E+00  8.00000000E+00  7.00000000E+00  8.00000000E+00
Nuclear QMom                               R   N=           5
  0.00000000E+00  0.00000000E+00  0.00000000E+00  2.04400000E+00  0.00000000E+00
Nuclear GFac                               R   N=           5
  2.79284600E+00  0.00000000E+00  0.00000000E+00  4.03761000E-01  0.00000000E+00
MicOpt                                     I   N=           5
          -1          -1          -1          -1          -1
Number of residues                         I                0
Number of secondary structures             I                0
SymInf integers                            I   N=          26
           1           2           1           1           1           1
           1          -1           0           0           0           0
           0           0           0           0           0           0
           0           0           0           0           0           0
           0           0
RotTr to input orientation                 R   N=          12
 -9.95595869E-01  6.66656209E-16 -9.37489545E-02  9.37489545E-02 -9.15102498E-16
 -9.95595869E-01 -7.49510070E-16 -1.00000000E+00  8.48573943E-16  2.60596778E+00
  0.00000000E+00  3.46154697E+00
Number of contracted shells                I               65
Number of primitive shells                 I              119
Pure/Cartesian d shells                    I                0
Pure/Cartesian f shells                    I                0
Highest angular momentum                   I                3
Largest degree of contraction              I                7
Shell types                                I   N=          65
           0           0           0           0           1           1
           1          -2          -2           0           0           0
           0           0           1           1           1           1
          -2          -2          -2          -3          -3           0
           0           0           0           0           1           1
           1           1          -2          -2          -2          -3
          -3           0           0           0           0           0
           1           1           1           1          -2          -2
          -2          -3          -3           0           0           0
           0           0           1           1           1           1
          -2          -2          -2          -3          -3
Number of primitives per shell             I   N=          65
           3           1           1           1           1           1
           1           1           1           7           6           1
           1           1           3           1           1           1
           1           1           1           1           1           7
           6           1           1           1           3           1
           1           1           1           1           1           1
           1           7           6           1           1           1
           3           1           1           1           1           1
           1           1           1           7           6           1
           1           1           3           1           1           1
           1           1           1           1           1
Shell to atom map                          I   N=          65
           1           1           1           1           1           1
           1           1           1           2           2           2
           2           2           2           2           2           2
           2           2           2           2           2           3
           3           3           3           3           3           3
           3           3           3           3           3           3
           3           4           4           4           4           4
           4           4           4           4           4           4
           4           4           4           5           5           5
           5           5           5           5           5           5
           5           5           5           5           5
Primitive exponents                        R   N=         119
  3.38700000E+01  5.09500000E+00  1.15900000E+00  3.25800000E-01  1.02700000E-01
  2.52600000E-02  1.40700000E+00  3.88000000E-01  1.02000000E-01  1.05700000E+00
  2.47000000E-01  1.53300000E+04  2.29900000E+03  5.22400000E+02  1.47300000E+02
  4.75500000E+01  1.67600000E+01  6.20700000E+00  5.22400000E+02  1.47300000E+02
  4.75500000E+01  1.67600000E+01  6.20700000E+00  6.88200000E-01  1.75200000E+00
  2.38400000E-01  7.37600000E-02  3.44600000E+01  7.74900000E+00  2.28000000E+00
  7.15600000E-01  2.14000000E-01  5.97400000E-02  2.31400000E+00  6.45000000E-01
  2.14000000E-01  1.42800000E+00  5.00000000E-01  1.53300000E+04  2.29900000E+03
  5.22400000E+02  1.47300000E+02  4.75500000E+01  1.67600000E+01  6.20700000E+00
  5.22400000E+02  1.47300000E+02  4.75500000E+01  1.67600000E+01  6.20700000E+00
  6.88200000E-01  1.75200000E+00  2.38400000E-01  7.37600000E-02  3.44600000E+01
  7.74900000E+00  2.28000000E+00  7.15600000E-01  2.14000000E-01  5.97400000E-02
  2.31400000E+00  6.45000000E-01  2.14000000E-01  1.42800000E+00  5.00000000E-01
  1.14200000E+04  1.71200000E+03  3.89300000E+02  1.10000000E+02  3.55700000E+01
  1.25400000E+01  4.64400000E+00  3.89300000E+02  1.10000000E+02  3.55700000E+01
  1.25400000E+01  4.64400000E+00  5.11800000E-01  1.29300000E+00  1.78700000E-01
  5.76000000E-02  2.66300000E+01  5.94800000E+00  1.74200000E+00  5.55000000E-01
  1.72500000E-01  4.91000000E-02  1.65400000E+00  4.69000000E-01  1.51000000E-01
  1.09300000E+00  3.64000000E-01  1.53300000E+04  2.29900000E+03  5.22400000E+02
  1.47300000E+02  4.75500000E+01  1.67600000E+01  6.20700000E+00  5.22400000E+02
  1.47300000E+02  4.75500000E+01  1.67600000E+01  6.20700000E+00  6.88200000E-01
  1.75200000E+00  2.38400000E-01  7.37600000E-02  3.44600000E+01  7.74900000E+00
  2.28000000E+00  7.15600000E-01  2.14000000E-01  5.97400000E-02  2.31400000E+00
  6.45000000E-01  2.14000000E-01  1.42800000E+00  5.00000000E-01
Contraction coefficients                   R   N=         119
  2.54948632E-02  1.90362766E-01  8.52162022E-01  1.00000000E+00  1.00000000E+00
  1.00000000E+00  1.00000000E+00  1.00000000E+00  1.00000000E+00  1.00000000E+00
  1.00000000E+00  5.19808943E-04  4.02025621E-03  2.07128267E-02  8.10105536E-02
  2.35962985E-01  4.42653446E-01  3.57064423E-01 -4.42115008E-05 -1.22591041E-03
 -1.05517725E-02 -6.74452633E-02 -1.71198607E-01  1.07329856E+00  1.00000000E+00
  1.00000000E+00  1.00000000E+00  4.11634896E-02  2.57762836E-01  8.02419274E-01
  1.00000000E+00  1.00000000E+00  1.00000000E+00  1.00000000E+00  1.00000000E+00
  1.00000000E+00  1.00000000E+00  1.00000000E+00  5.19808943E-04  4.02025621E-03
  2.07128267E-02  8.10105536E-02  2.35962985E-01  4.42653446E-01  3.57064423E-01
 -4.42115008E-05 -1.22591041E-03 -1.05517725E-02 -6.74452633E-02 -1.71198607E-01
  1.07329856E+00  1.00000000E+00  1.00000000E+00  1.00000000E+00  4.11634896E-02
  2.57762836E-01  8.02419274E-01  1.00000000E+00  1.00000000E+00  1.00000000E+00
  1.00000000E+00  1.00000000E+00  1.00000000E+00  1.00000000E+00  1.00000000E+00
  5.34563860E-04  4.13435660E-03  2.12335358E-02  8.25006224E-02  2.38138871E-01
  4.42551547E-01  3.53757422E-01 -4.89867350E-05 -1.19527323E-03 -1.03490714E-02
 -6.48680190E-02 -1.71552477E-01  1.07289568E+00  1.00000000E+00  1.00000000E+00
  1.00000000E+00  3.98072123E-02  2.49002660E-01  8.10479727E-01  1.00000000E+00
  1.00000000E+00  1.00000000E+00  1.00000000E+00  1.00000000E+00  1.00000000E+00
  1.00000000E+00  1.00000000E+00  5.19808943E-04  4.02025621E-03  2.07128267E-02
  8.10105536E-02  2.35962985E-01  4.42653446E-01  3.57064423E-01 -4.42115008E-05
 -1.22591041E-03 -1.05517725E-02 -6.74452633E-02 -1.71198607E-01  1.07329856E+00
  1.00000000E+00  1.00000000E+00  1.00000000E+00  4.11634896E-02  2.57762836E-01
  8.02419274E-01  1.00000000E+00  1.00000000E+00  1.00000000E+00  1.00000000E+00
  1.00000000E+00  1.00000000E+00  1.00000000E+00  1.00000000E+00
Coordinates of each shell                  R   N=         195
  2.91900716E+00  3.20199510E+00  4.21582717E-31  2.91900716E+00  3.20199510E+00
  4.21582717E-31  2.91900716E+00  3.20199510E+00  4.21582717E-31  2.91900716E+00
  3.20199510E+00  4.21582717E-31  2.91900716E+00  3.20199510E+00  4.21582717E-31
  2.91900716E+00  3.20199510E+00  4.21582717E-31  2.91900716E+00  3.20199510E+00
  4.21582717E-31  2.91900716E+00  3.20199510E+00  4.21582717E-31  2.91900716E+00
  3.20199510E+00  4.21582717E-31  2.74734360E+00  1.37896107E+00 -4.42689588E-33
  2.74734360E+00  1.37896107E+00 -4.42689588E-33  2.74734360E+00  1.37896107E+00
 -4.42689588E-33  2.74734360E+00  1.37896107E+00 -4.42689588E-33  2.74734360E+00
  1.37896107E+00 -4.42689588E-33  2.74734360E+00  1.37896107E+00 -4.42689588E-33
  2.74734360E+00  1.37896107E+00 -4.42689588E-33  2.74734360E+00  1.37896107E+00
 -4.42689588E-33  2.74734360E+00  1.37896107E+00 -4.42689588E-33  2.74734360E+00
  1.37896107E+00 -4.42689588E-33  2.74734360E+00  1.37896107E+00 -4.42689588E-33
  2.74734360E+00  1.37896107E+00 -4.42689588E-33  2.74734360E+00  1.37896107E+00
 -4.42689588E-33  2.74734360E+00  1.37896107E+00 -4.42689588E-33  1.58264585E-17
  1.27266819E+00  3.12355193E-31  1.58264585E-17  1.27266819E+00  3.12355193E-31
  1.58264585E-17  1.27266819E+00  3.12355193E-31  1.58264585E-17  1.27266819E+00
  3.12355193E-31  1.58264585E-17  1.27266819E+00  3.12355193E-31  1.58264585E-17
  1.27266819E+00  3.12355193E-31  1.58264585E-17  1.27266819E+00  3.12355193E-31
  1.58264585E-17  1.27266819E+00  3.12355193E-31  1.58264585E-17  1.27266819E+00
  3.12355193E-31  1.58264585E-17  1.27266819E+00  3.12355193E-31  1.58264585E-17
  1.27266819E+00  3.12355193E-31  1.58264585E-17  1.27266819E+00  3.12355193E-31
  1.58264585E-17  1.27266819E+00  3.12355193E-31  1.58264585E-17  1.27266819E+00
  3.12355193E-31 -4.82576209E-01 -1.44146667E+00 -2.93558205E-31 -4.82576209E-01
 -1.44146667E+00 -2.93558205E-31 -4.82576209E-01 -1.44146667E+00 -2.93558205E-31
 -4.82576209E-01 -1.44146667E+00 -2.93558205E-31 -4.82576209E-01 -1.44146667E+00
 -2.93558205E-31 -4.82576209E-01 -1.44146667E+00 -2.93558205E-31 -4.82576209E-01
 -1.44146667E+00 -2.93558205E-31 -4.82576209E-01 -1.44146667E+00 -2.93558205E-31
 -4.82576209E-01 -1.44146667E+00 -2.93558205E-31 -4.82576209E-01 -1.44146667E+00
 -2.93558205E-31 -4.82576209E-01 -1.44146667E+00 -2.93558205E-31 -4.82576209E-01
 -1.44146667E+00 -2.93558205E-31 -4.82576209E-01 -1.44146667E+00 -2.93558205E-31
 -4.82576209E-01 -1.44146667E+00 -2.93558205E-31 -2.68996531E+00 -1.79059531E+00
 -1.03762708E-31 -2.68996531E+00 -1.79059531E+00 -1.03762708E-31 -2.68996531E+00
 -1.79059531E+00 -1.03762708E-31 -2.68996531E+00 -1.79059531E+00 -1.03762708E-31
 -2.68996531E+00 -1.79059531E+00 -1.03762708E-31 -2.68996531E+00 -1.79059531E+00
 -1.03762708E-31 -2.68996531E+00 -1.79059531E+00 -1.03762708E-31 -2.68996531E+00
 -1.79059531E+00 -1.03762708E-31 -2.68996531E+00 -1.79059531E+00 -1.03762708E-31
 -2.68996531E+00 -1.79059531E+00 -1.03762708E-31 -2.68996531E+00 -1.79059531E+00
 -1.03762708E-31 -2.68996531E+00 -1.79059531E+00 -1.03762708E-31 -2.68996531E+00
 -1.79059531E+00 -1.03762708E-31 -2.68996531E+00 -1.79059531E+00 -1.03762708E-31
Num ILSW                                   I              100
ILSW                                       I   N=         100
           0           0           0           0           2           0
           0           0           0           0           0          -1
           5           0           0           0           0           0
           0           0           0           0           0           0
           1           0           0           0           0           0
           0           0      100000           0          -1           0
           0           0           0           0           0           0
           0           0           0           1           0           0
           0 -2000000000           1           0           0           0
           0           0           4          52           0           0
           0           0           0           0           0           0
           0           0           0           5           0           1
           0           0           0           0           0           0
           0           0           0           0           0           0
           0           0           0           0           0           0
           0           0           0           0           0           0
           0           0           0           0
Num RLSW                                   I               52
RLSW                                       R   N=          52
  1.00000000E+00  1.00000000E+00  1.00000000E+00  1.00000000E+00  1.00000000E+00
  0.00000000E+00  0.00000000E+00  1.00000000E+00  0.00000000E+00  0.00000000E+00
  0.00000000E+00  0.00000000E+00  1.00000000E+00  0.00000000E+00  0.00000000E+00
  0.00000000E+00  0.00000000E+00  1.00000000E+00  0.00000000E+00  0.00000000E+00
  0.00000000E+00  0.00000000E+00  1.00000000E+00  0.00000000E+00  0.00000000E+00
  0.00000000E+00  0.00000000E+00  1.00000000E+00  0.00000000E+00  0.00000000E+00
  0.00000000E+00  0.00000000E+00  1.00000000E+00  0.00000000E+00  0.00000000E+00
  0.00000000E+00  0.00000000E+00  0.00000000E+00  1.00000000E+00  1.00000000E+00
  0.00000000E+00  1.00000000E+00  0.00000000E+00  0.00000000E+00  0.00000000E+00
  0.00000000E+00  0.00000000E+00  0.00000000E+00  0.00000000E+00  0.00000000E+00
  0.00000000E+00  0.00000000E+00
MxBond                                     I                2
NBond                                      I   N=           5
           1           2           2           2           1
IBond                                      I   N=          10
           2           0           1           3           2           4
           3           5           4           0
RBond                                      R   N=          10
  1.00000000E+00  0.00000000E+00  1.00000000E+00  1.00000000E+00  1.00000000E+00
  1.00000000E+00  1.00000000E+00  2.00000000E+00  2.00000000E+00  0.00000000E+00
Virial Ratio                               R      2.002549370060726E+00
SCF Energy                                 R     -2.794994482971082E+02
MP2 Energy                                 R     -2.804465446787019E+02
Total Energy                               R     -2.804465446787019E+02
Post-SCF wavefunction norm                 R      1.121065889349395E+00
RMS Density                                R      4.118249301814308E-09
Job Status                                 I                1
Nuclear derivative order                   I                0
External E-field                           R   N=          35
  0.00000000E+00  0.00000000E+00  0.00000000E+00  0.00000000E+00  0.00000000E+00
  0.00000000E+00  0.00000000E+00  0.00000000E+00  0.00000000E+00  0.00000000E+00
  0.00000000E+00  0.00000000E+00  0.00000000E+00  0.00000000E+00  0.00000000E+00
  0.00000000E+00  0.00000000E+00  0.00000000E+00  0.00000000E+00  0.00000000E+00
  0.00000000E+00  0.00000000E+00  0.00000000E+00  0.00000000E+00  0.00000000E+00
  0.00000000E+00  0.00000000E+00  0.00000000E+00  0.00000000E+00  0.00000000E+00
  0.00000000E+00  0.00000000E+00  0.00000000E+00  0.00000000E+00  0.00000000E+00
IOpCl                                      I                0
IROHF                                      I                0
Alpha Orbital Energies                     R   N=         207
 -2.06936304E+01 -2.06838144E+01 -2.06614826E+01 -1.58145582E+01 -1.61469200E+00
 -1.49539802E+00 -1.25559037E+00 -9.49709013E-01 -7.71519362E-01 -7.56084756E-01
 -7.09600156E-01 -6.77863372E-01 -6.17925318E-01 -5.90164837E-01 -4.86174120E-01
 -4.74791629E-01  2.93076845E-02  6.80161607E-02  8.61300994E-02  1.01721376E-01
  1.33785600E-01  1.34177910E-01  1.43831557E-01  1.54241463E-01  1.78057202E-01
  1.94303229E-01  1.99383969E-01  2.06340087E-01  2.20406129E-01  2.34452253E-01
  2.37301439E-01  2.65914453E-01  2.92234235E-01  3.03418416E-01  3.09909490E-01
  3.43549481E-01  3.49330094E-01  3.86758375E-01  4.21432268E-01  4.31482166E-01
  5.27279203E-01  5.27561866E-01  5.57679096E-01  5.81362627E-01  6.19411585E-01
  6.38868198E-01  6.78118677E-01  6.83711727E-01  7.06291849E-01  7.10867983E-01
  7.23705869E-01  7.28706375E-01  7.44702569E-01  7.90905030E-01  7.91303532E-01
  8.10758709E-01  8.11618558E-01  8.27531387E-01  8.67218410E-01  9.07177029E-01
  9.20848975E-01  9.25204910E-01  9.55966395E-01  9.74949023E-01  9.83615108E-01
  1.01588201E+00  1.05122854E+00  1.05404572E+00  1.08013226E+00  1.11603692E+00
  1.14005117E+00  1.18878470E+00  1.21907559E+00  1.23091341E+00  1.33794728E+00
  1.34967273E+00  1.38432450E+00  1.45280754E+00  1.48717595E+00  1.50751431E+00
  1.53765143E+00  1.56690634E+00  1.57999384E+00  1.61235693E+00  1.66128027E+00
  1.66914843E+00  1.70365618E+00  1.79253119E+00  1.83226358E+00  1.83423174E+00
  1.87511297E+00  1.90991428E+00  1.95923451E+00  1.98908931E+00  2.00644117E+00
  2.07729783E+00  2.12059633E+00  2.13083742E+00  2.14864133E+00  2.22379292E+00
  2.26324500E+00  2.26395755E+00  2.28842928E+00  2.31289881E+00  2.34025903E+00
  2.38504018E+00  2.42173572E+00  2.42595212E+00  2.45393147E+00  2.46122981E+00
  2.47487615E+00  2.49886234E+00  2.58778867E+00  2.59432429E+00  2.61833448E+00
  2.62004590E+00  2.63299843E+00  2.66404416E+00  2.75281164E+00  2.81936762E+00
  2.84986547E+00  2.87865417E+00  2.89149126E+00  2.91990449E+00  2.95509097E+00
  3.02240194E+00  3.06992393E+00  3.11780075E+00  3.20352146E+00  3.22340844E+00
  3.31431580E+00  3.33997205E+00  3.51176946E+00  3.64222378E+00  3.83654236E+00
  3.84047819E+00  4.14719406E+00  4.16109571E+00  4.18179722E+00  4.22943136E+00
  4.35022203E+00  4.39132324E+00  4.45994903E+00  4.51676000E+00  4.64735103E+00
  4.70829422E+00  4.79846006E+00  4.82230454E+00  4.82631234E+00  4.89649089E+00
  5.02498321E+00  5.07641327E+00  5.09864567E+00  5.14932086E+00  5.17487391E+00
  5.23775622E+00  5.27099284E+00  5.30801065E+00  5.32750273E+00  5.34645762E+00
  5.60320447E+00  5.65420618E+00  5.75853181E+00  5.82405658E+00  5.96245437E+00
  6.16541534E+00  6.30640948E+00  6.33709103E+00  6.39264957E+00  6.49360708E+00
  6.50523662E+00  6.61197978E+00  6.66635387E+00  6.69467274E+00  6.75572822E+00
  6.76121760E+00  6.82534156E+00  6.89370319E+00  7.00953448E+00  7.05271908E+00
  7.05481417E+00  7.08825539E+00  7.11860247E+00  7.14647238E+00  7.17980908E+00
  7.21630695E+00  7.23884152E+00  7.29963764E+00  7.30039301E+00  7.34007139E+00
  7.39109681E+00  7.42932617E+00  7.48283740E+00  7.59673400E+00  7.60533003E+00
  7.61462347E+00  7.66259857E+00  7.77868029E+00  7.86742507E+00  8.08790009E+00
  8.30992043E+00  8.40770049E+00  8.54141862E+00  1.33653629E+01  1.42956906E+01
  1.51556924E+01  1.58044716E+01
Alpha MO coefficients                      R   N=       42849
  9.14824689E-05 -6.52060855E-04 -7.25332393E-04 -5.38269011E-06 -2.12788703E-05
 -2.65669488E-05  0.00000000E+00 -4.40741286E-05  6.23675921E-05  0.00000000E+00
  8.52993541E-05  3.50536059E-05  0.00000000E+00  3.17388893E-05  0.00000000E+00
  0.00000000E+00 -4.96196867E-05  2.09094348E-05 -6.31009956E-06  0.00000000E+00
  0.00000000E+00 -1.39204293E-04  1.17605352E-04  4.40667778E-03 -2.80665950E-04
  6.76940888E-06  1.56840049E-03  1.82214809E-03  1.06293657E-04  7.64847948E-06
  0.00000000E+00 -6.16974672E-04 -3.80365999E-05  0.00000000E+00 -1.10449183E-03
  8.01967757E-04  0.00000000E+00 -4.02176514E-04  6.41295200E-05  0.00000000E+00
  2.88286619E-05  0.00000000E+00  0.00000000E+00 -5.39926985E-05  5.17960199E-06
 -3.78560088E-04  0.00000000E+00  0.00000000E+00  7.39053901E-04 -2.47950422E-05
 -4.46883477E-04  0.00000000E+00  0.00000000E+00  2.40066604E-04 -1.75960610E-05
  0.00000000E+00  7.99611492E-05  1.30790701E-05  0.00000000E+00  0.00000000E+00
 -1.09391496E-04 -4.85848372E-06  0.00000000E+00  2.54288698E-04 -2.71242156E-05
  0.00000000E+00  0.00000000E+00 -3.54216213E-04  4.50507011E-05  9.76917646E-01
 -9.21352112E-03  4.33134283E-02  2.00431213E-03 -9.32334051E-04  1.49837235E-03
 -1.36624146E-03  0.00000000E+00 -1.43851793E-03  1.39527912E-03  0.00000000E+00
  8.14165168E-05 -1.16037454E-03  0.00000000E+00 -1.36980770E-04 -1.21584592E-05
  0.00000000E+00  4.65357109E-05  0.00000000E+00  0.00000000E+00 -3.46408237E-05
  2.04085459E-05  7.49751670E-04  0.00000000E+00  0.00000000E+00 -2.22934100E-04
 -3.92233798E-04 -3.59565062E-04  0.00000000E+00  0.00000000E+00 -3.12582590E-04
 -3.79639663E-04  0.00000000E+00  4.74624973E-05 -4.94598527E-05  0.00000000E+00
  0.00000000E+00 -3.89543427E-05 -1.66686901E-05  0.00000000E+00  2.35922425E-05
  2.25364986E-05  0.00000000E+00  0.00000000E+00 -3.03054369E-04 -1.44807734E-04
  4.06882907E-05  5.51252865E-05 -2.64746872E-04 -6.65583675E-04 -1.19504016E-04
 -2.72995227E-05 -9.88700077E-05  0.00000000E+00  2.60644362E-04  7.15383987E-04
  0.00000000E+00 -8.23942781E-04 -4.49535077E-04  0.00000000E+00 -1.23699107E-04
 -2.24892200E-05  0.00000000E+00 -1.82133042E-05  0.00000000E+00  0.00000000E+00
 -2.88438400E-05  1.47307048E-05 -3.32181598E-04  0.00000000E+00  0.00000000E+00
 -8.34258043E-04  1.23457895E-04 -4.00182158E-05  0.00000000E+00  0.00000000E+00
  9.04419351E-05 -1.16196777E-04  0.00000000E+00 -2.06015825E-05 -1.20748143E-04
  0.00000000E+00  0.00000000E+00 -6.15610331E-05 -1.40265613E-04  0.00000000E+00
  2.34857480E-06 -1.55104611E-04  0.00000000E+00  0.00000000E+00  4.60855430E-05
 -4.18981814E-04 -1.69291450E-03  1.12521182E-04 -8.52223234E-05 -2.47773456E-04
  1.17227815E-04 -5.67606729E-06 -2.78181293E-05  0.00000000E+00  6.47181206E-05
  1.63410625E-04  0.00000000E+00  2.14351001E-04  1.88879422E-04  0.00000000E+00
  1.21966672E-04  2.08273261E-05  0.00000000E+00 -3.75459983E-06  0.00000000E+00
  0.00000000E+00 -1.70311931E-05  7.43588684E-07  5.19109096E-07  0.00000000E+00
  0.00000000E+00  7.46215278E-05  9.07377436E-05 -9.61890532E-05  0.00000000E+00
  0.00000000E+00  1.61339774E-04  1.56238949E-04  0.00000000E+00  1.59260192E-05
 -4.12896581E-06  0.00000000E+00  0.00000000E+00 -5.52659631E-06 -1.15700886E-05
  0.00000000E+00 -3.31199799E-05  4.50659529E-05  0.00000000E+00  0.00000000E+00
  8.20713837E-05  9.13659911E-05  3.77724521E-05 -1.00198117E-03 -5.05360301E-04
 -1.34004888E-05 -2.24910846E-05  1.68887857E-05  0.00000000E+00 -2.92627547E-06
  2.79860902E-04  0.00000000E+00 -4.51355501E-05  1.38368001E-04  0.00000000E+00
  2.61093924E-05  0.00000000E+00  0.00000000E+00  1.30885717E-05  1.17060641E-05
 -2.72517235E-05  0.00000000E+00  0.00000000E+00  1.03130185E-05  3.66028294E-05
  1.15034064E-04  8.36664733E-05 -2.75644501E-05  7.51280239E-04  6.66946262E-04
  9.37344662E-06  2.83427541E-06  0.00000000E+00 -6.75523743E-05  1.55272122E-05
  0.00000000E+00  3.47387908E-04  9.01930977E-04  0.00000000E+00  7.33141819E-06
  8.79816066E-05  0.00000000E+00 -2.14225082E-06  0.00000000E+00  0.00000000E+00
  3.81467208E-07 -6.68047867E-06 -3.57174394E-05  0.00000000E+00  0.00000000E+00
 -2.73564197E-05  8.81943333E-05 -2.04863384E-05  0.00000000E+00  0.00000000E+00
 -2.71419335E-04 -1.56145762E-04  0.00000000E+00  9.22625068E-06  6.30339513E-06
  0.00000000E+00  0.00000000E+00  3.75211044E-06 -1.93765771E-05  0.00000000E+00
 -4.23758610E-05 -3.93987342E-05  0.00000000E+00  0.00000000E+00 -7.66031580E-05
  1.70470267E-05  1.73190421E-03  4.91894765E-05  5.03417447E-05 -6.36736794E-05
 -4.79949087E-04  7.02783576E-06  1.68840804E-05  0.00000000E+00 -6.53788044E-05
 -5.94503700E-05  0.00000000E+00  2.26032102E-04 -1.55540976E-04  0.00000000E+00
 -1.96008620E-04 -6.51428624E-05  0.00000000E+00 -8.74510843E-06  0.00000000E+00
  0.00000000E+00  2.08302449E-05  1.74538203E-05  2.19335493E-06  0.00000000E+00
  0.00000000E+00 -1.08748073E-04 -3.16449536E-05 -2.45366451E-06  0.00000000E+00
  0.00000000E+00 -2.11321683E-04 -1.82518745E-04  0.00000000E+00  3.72121028E-06
  5.71074522E-08  0.00000000E+00  0.00000000E+00  2.08263081E-06 -1.61773808E-05
  0.00000000E+00 -4.67578243E-05 -4.65692791E-07  0.00000000E+00  0.00000000E+00
 -6.53915900E-05  1.88999151E-04  2.55512446E-04  1.44295444E-03 -1.28665850E-04
 -1.30128433E-03  4.61058535E-04 -1.14785035E-04  4.95135460E-06  0.00000000E+00
 -2.12145418E-03 -4.26948315E-04  0.00000000E+00  9.19035176E-04  7.59595488E-04
  0.00000000E+00 -1.81863395E-04  5.44257139E-05  0.00000000E+00 -1.25904597E-04
  0.00000000E+00  0.00000000E+00  2.44659201E-04  9.52394153E-05 -4.74514786E-04
  0.00000000E+00  0.00000000E+00  9.59183166E-04 -1.98881068E-05 -4.69086016E-06
  0.00000000E+00  0.00000000E+00 -3.04540826E-04 -1.11449395E-04  0.00000000E+00
  1.74077208E-05  1.90331053E-05  0.00000000E+00  0.00000000E+00 -3.48596756E-06
  8.63853715E-07  0.00000000E+00  1.70111794E-04 -7.17910380E-05  0.00000000E+00
  0.00000000E+00 -2.68556953E-04  4.33049083E-05  9.76671258E-01 -9.86018940E-03
  4.35351994E-02  4.28501292E-03 -5.23201385E-04  2.13436642E-03  4.87291221E-04
  0.00000000E+00 -2.43117739E-03 -6.18204015E-04  0.00000000E+00  1.09111971E-03
 -1.32134001E-05  0.00000000E+00 -3.56205214E-06 -4.56025686E-05  0.00000000E+00
 -2.24233663E-04  0.00000000E+00  0.00000000E+00  8.87273558E-05  2.78799207E-05
  3.97958043E-04  0.00000000E+00  0.00000000E+00 -8.49873852E-04 -4.30025294E-04
 -1.64011347E-04  0.00000000E+00  0.00000000E+00  2.70078633E-04  1.90541826E-05
  0.00000000E+00  5.88645046E-05  1.86665481E-05  0.00000000E+00  0.00000000E+00
 -3.00702956E-05 -1.71093236E-05  0.00000000E+00  1.30849071E-04  8.67248283E-06
  0.00000000E+00  0.00000000E+00 -1.84962986E-04 -1.40287220E-04  4.74749546E-04
  2.05815094E-03  1.12602903E-04  1.55047170E-05 -4.02148114E-05 -2.46919300E-04
  0.00000000E+00  1.17241778E-04 -1.27390955E-03  0.00000000E+00  3.14455594E-04
 -3.35645308E-04  0.00000000E+00 -2.68165203E-06  0.00000000E+00  0.00000000E+00
  7.58350377E-05  1.62327640E-05 -1.60029016E-04  0.00000000E+00  0.00000000E+00
 -5.37311579E-04 -2.86463352E-05  9.76831306E-01 -9.16314486E-03  4.34492896E-02
  1.62114667E-04 -1.14058686E-03 -1.57027169E-03  1.43605785E-03  0.00000000E+00
  1.58135297E-03 -1.27849701E-03  0.00000000E+00 -5.64584466E-04 -8.65124163E-04
  0.00000000E+00  5.48433783E-05 -3.43846979E-05  0.00000000E+00  2.97282461E-05
  0.00000000E+00  0.00000000E+00 -1.18280886E-04 -4.06309806E-06  7.57811273E-04
  0.00000000E+00  0.00000000E+00 -2.01246802E-04 -2.37039112E-04 -2.66637280E-04
  0.00000000E+00  0.00000000E+00  1.67343521E-04  1.28635498E-04  0.00000000E+00
 -6.42250798E-05  1.04679651E-06  0.00000000E+00  0.00000000E+00  1.88171114E-05
  1.00838403E-05  0.00000000E+00 -1.68428907E-06  1.22629241E-04  0.00000000E+00
  0.00000000E+00  2.55830493E-04  9.47318927E-05 -4.49899473E-03 -2.12990808E-04