title                                                                   
SP        RMP2-FC                                                     Aug-CC-pVTZ         
Number of atoms                            I                5
Info1-9                                    I   N=           9
          33          24           0           0           0         110
           1           2           1
Full Title                                 C   N=           1
title       
Route                                      C   N=           4
#p SP mp2/aug-cc-pvtz density=current           
Charge                                     I                0
Multiplicity                               I                1
Number of electrons                        I               32
Number of alpha electrons                  I               16
Number of beta electrons                   I               16
Number of basis functions                  I              207
Number of independent functions            I              207
Number of point charges in /Mol/           I                0
Number of translation vectors              I                0
Atomic numbers                             I   N=           5
           1           8           8           7           8
Nuclear charges                            R   N=           5
  1.00000000E+00  8.00000000E+00  8.00000000E+00  7.00000000E+00  8.00000000E+00
Current cartesian coordinates              R   N=          15
  3.00186356E+00  3.09920284E+00 -9.41302959E-32  2.74935302E+00  1.28559873E+00
 -6.19363733E-32 -4.17116607E-18  1.30150423E+00 -2.98087408E-32 -4.99858520E-01
 -1.40950099E+00  3.91377290E-32 -2.68720976E+00 -1.74118995E+00  7.87469458E-32
Number of symbols in /Mol/                 I                0
Force Field                                I                0
Atom Types                                 C   N=           5
                                                            
Int Atom Types                             I   N=           5
           0           0           0           0           0
MM charges                                 R   N=           5
  0.00000000E+00  0.00000000E+00  0.00000000E+00  0.00000000E+00  0.00000000E+00
Integer atomic weights                     I   N=           5
           1          16          16          14          16
Real atomic weights                        R   N=           5
  1.00782504E+00  1.59949146E+01  1.59949146E+01  1.40030740E+01  1.59949146E+01
Atom fragment info                         I   N=           5
           0           0           0           0           0
Atom residue num                           I   N=           5
           0           0           0           0           0
Nuclear spins                              I   N=           5
           1           0           0           2           0
Nuclear ZEff                               R   N=           5
 -1.00000000E+00 -5.60000000E+00 -5.60000000E+00 -4.55000000E+00 -5.60000000E+00
Nuclear ZNuc                               R   N=           5
  1.00000000E+00  8.00000000E+00  8.00000000E+00  7.00000000E+00  8.00000000E+00
Nuclear QMom                               R   N=           5
  0.00000000E+00  0.00000000E+00  0.00000000E+00  2.04400000E+00  0.00000000E+00
Nuclear GFac                               R   N=           5
  2.79284600E+00  0.00000000E+00  0.00000000E+00  4.03761000E-01  0.00000000E+00
MicOpt                                     I   N=           5
          -1          -1          -1          -1          -1
Number of residues                         I                0
Number of secondary structures             I                0
SymInf integers                            I   N=          26
           1           2           1           1           1           1
           1          -1           0           0           0           0
           0           0           0           0           0           0
           0           0           0           0           0           0
           0           0
RotTr to input orientation                 R   N=          12
 -9.90446000E-01 -9.95823958E-17 -1.37901128E-01  1.37901128E-01 -7.12807426E-17
 -9.90446000E-01  8.88012908E-17 -1.00000000E+00  8.43322511E-17  2.54580019E+00
  0.00000000E+00  3.48355343E+00
Number of contracted shells                I               65
Number of primitive shells                 I              119
Pure/Cartesian d shells                    I                0
Pure/Cartesian f shells                    I                0
Highest angular momentum                   I                3
Largest degree of contraction              I                7
Shell types                                I   N=          65
           0           0           0           0           1           1
           1          -2          -2           0           0           0
           0           0           1           1           1           1
          -2          -2          -2          -3          -3           0
           0           0           0           0           1           1
           1           1          -2          -2          -2          -3
          -3           0           0           0           0           0
           1           1           1           1          -2          -2
          -2          -3          -3           0           0           0
           0           0           1           1           1           1
          -2          -2          -2          -3          -3
Number of primitives per shell             I   N=          65
           3           1           1           1           1           1
           1           1           1           7           6           1
           1           1           3           1           1           1
           1           1           1           1           1           7
           6           1           1           1           3           1
           1           1           1           1           1           1
           1           7           6           1           1           1
           3           1           1           1           1           1
           1           1           1           7           6           1
           1           1           3           1           1           1
           1           1           1           1           1
Shell to atom map                          I   N=          65
           1           1           1           1           1           1
           1           1           1           2           2           2
           2           2           2           2           2           2
           2           2           2           2           2           3
           3           3           3           3           3           3
           3           3           3           3           3           3
           3           4           4           4           4           4
           4           4           4           4           4           4
           4           4           4           5           5           5
           5           5           5           5           5           5
           5           5           5           5           5
Primitive exponents                        R   N=         119
  3.38700000E+01  5.09500000E+00  1.15900000E+00  3.25800000E-01  1.02700000E-01
  2.52600000E-02  1.40700000E+00  3.88000000E-01  1.02000000E-01  1.05700000E+00
  2.47000000E-01  1.53300000E+04  2.29900000E+03  5.22400000E+02  1.47300000E+02
  4.75500000E+01  1.67600000E+01  6.20700000E+00  5.22400000E+02  1.47300000E+02
  4.75500000E+01  1.67600000E+01  6.20700000E+00  6.88200000E-01  1.75200000E+00
  2.38400000E-01  7.37600000E-02  3.44600000E+01  7.74900000E+00  2.28000000E+00
  7.15600000E-01  2.14000000E-01  5.97400000E-02  2.31400000E+00  6.45000000E-01
  2.14000000E-01  1.42800000E+00  5.00000000E-01  1.53300000E+04  2.29900000E+03
  5.22400000E+02  1.47300000E+02  4.75500000E+01  1.67600000E+01  6.20700000E+00
  5.22400000E+02  1.47300000E+02  4.75500000E+01  1.67600000E+01  6.20700000E+00
  6.88200000E-01  1.75200000E+00  2.38400000E-01  7.37600000E-02  3.44600000E+01
  7.74900000E+00  2.28000000E+00  7.15600000E-01  2.14000000E-01  5.97400000E-02
  2.31400000E+00  6.45000000E-01  2.14000000E-01  1.42800000E+00  5.00000000E-01
  1.14200000E+04  1.71200000E+03  3.89300000E+02  1.10000000E+02  3.55700000E+01
  1.25400000E+01  4.64400000E+00  3.89300000E+02  1.10000000E+02  3.55700000E+01
  1.25400000E+01  4.64400000E+00  5.11800000E-01  1.29300000E+00  1.78700000E-01
  5.76000000E-02  2.66300000E+01  5.94800000E+00  1.74200000E+00  5.55000000E-01
  1.72500000E-01  4.91000000E-02  1.65400000E+00  4.69000000E-01  1.51000000E-01
  1.09300000E+00  3.64000000E-01  1.53300000E+04  2.29900000E+03  5.22400000E+02
  1.47300000E+02  4.75500000E+01  1.67600000E+01  6.20700000E+00  5.22400000E+02
  1.47300000E+02  4.75500000E+01  1.67600000E+01  6.20700000E+00  6.88200000E-01
  1.75200000E+00  2.38400000E-01  7.37600000E-02  3.44600000E+01  7.74900000E+00
  2.28000000E+00  7.15600000E-01  2.14000000E-01  5.97400000E-02  2.31400000E+00
  6.45000000E-01  2.14000000E-01  1.42800000E+00  5.00000000E-01
Contraction coefficients                   R   N=         119
  2.54948632E-02  1.90362766E-01  8.52162022E-01  1.00000000E+00  1.00000000E+00
  1.00000000E+00  1.00000000E+00  1.00000000E+00  1.00000000E+00  1.00000000E+00
  1.00000000E+00  5.19808943E-04  4.02025621E-03  2.07128267E-02  8.10105536E-02
  2.35962985E-01  4.42653446E-01  3.57064423E-01 -4.42115008E-05 -1.22591041E-03
 -1.05517725E-02 -6.74452633E-02 -1.71198607E-01  1.07329856E+00  1.00000000E+00
  1.00000000E+00  1.00000000E+00  4.11634896E-02  2.57762836E-01  8.02419274E-01
  1.00000000E+00  1.00000000E+00  1.00000000E+00  1.00000000E+00  1.00000000E+00
  1.00000000E+00  1.00000000E+00  1.00000000E+00  5.19808943E-04  4.02025621E-03
  2.07128267E-02  8.10105536E-02  2.35962985E-01  4.42653446E-01  3.57064423E-01
 -4.42115008E-05 -1.22591041E-03 -1.05517725E-02 -6.74452633E-02 -1.71198607E-01
  1.07329856E+00  1.00000000E+00  1.00000000E+00  1.00000000E+00  4.11634896E-02
  2.57762836E-01  8.02419274E-01  1.00000000E+00  1.00000000E+00  1.00000000E+00
  1.00000000E+00  1.00000000E+00  1.00000000E+00  1.00000000E+00  1.00000000E+00
  5.34563860E-04  4.13435660E-03  2.12335358E-02  8.25006224E-02  2.38138871E-01
  4.42551547E-01  3.53757422E-01 -4.89867350E-05 -1.19527323E-03 -1.03490714E-02
 -6.48680190E-02 -1.71552477E-01  1.07289568E+00  1.00000000E+00  1.00000000E+00
  1.00000000E+00  3.98072123E-02  2.49002660E-01  8.10479727E-01  1.00000000E+00
  1.00000000E+00  1.00000000E+00  1.00000000E+00  1.00000000E+00  1.00000000E+00
  1.00000000E+00  1.00000000E+00  5.19808943E-04  4.02025621E-03  2.07128267E-02
  8.10105536E-02  2.35962985E-01  4.42653446E-01  3.57064423E-01 -4.42115008E-05
 -1.22591041E-03 -1.05517725E-02 -6.74452633E-02 -1.71198607E-01  1.07329856E+00
  1.00000000E+00  1.00000000E+00  1.00000000E+00  4.11634896E-02  2.57762836E-01
  8.02419274E-01  1.00000000E+00  1.00000000E+00  1.00000000E+00  1.00000000E+00
  1.00000000E+00  1.00000000E+00  1.00000000E+00  1.00000000E+00
Coordinates of each shell                  R   N=         195
  3.00186356E+00  3.09920284E+00 -6.44071667E-32  3.00186356E+00  3.09920284E+00
 -6.44071667E-32  3.00186356E+00  3.09920284E+00 -6.44071667E-32  3.00186356E+00
  3.09920284E+00 -6.44071667E-32  3.00186356E+00  3.09920284E+00 -6.44071667E-32
  3.00186356E+00  3.09920284E+00 -6.44071667E-32  3.00186356E+00  3.09920284E+00
 -6.44071667E-32  3.00186356E+00  3.09920284E+00 -6.44071667E-32  3.00186356E+00
  3.09920284E+00 -6.44071667E-32  2.74935302E+00  1.28559873E+00 -3.05521207E-32
  2.74935302E+00  1.28559873E+00 -3.05521207E-32  2.74935302E+00  1.28559873E+00
 -3.05521207E-32  2.74935302E+00  1.28559873E+00 -3.05521207E-32  2.74935302E+00
  1.28559873E+00 -3.05521207E-32  2.74935302E+00  1.28559873E+00 -3.05521207E-32
  2.74935302E+00  1.28559873E+00 -3.05521207E-32  2.74935302E+00  1.28559873E+00
 -3.05521207E-32  2.74935302E+00  1.28559873E+00 -3.05521207E-32  2.74935302E+00
  1.28559873E+00 -3.05521207E-32  2.74935302E+00  1.28559873E+00 -3.05521207E-32
  2.74935302E+00  1.28559873E+00 -3.05521207E-32  2.74935302E+00  1.28559873E+00
 -3.05521207E-32  2.74935302E+00  1.28559873E+00 -3.05521207E-32 -5.59776334E-18
  1.30150423E+00 -2.38335154E-32 -5.59776334E-18  1.30150423E+00 -2.38335154E-32
 -5.59776334E-18  1.30150423E+00 -2.38335154E-32 -5.59776334E-18  1.30150423E+00
 -2.38335154E-32 -5.59776334E-18  1.30150423E+00 -2.38335154E-32 -5.59776334E-18
  1.30150423E+00 -2.38335154E-32 -5.59776334E-18  1.30150423E+00 -2.38335154E-32
 -5.59776334E-18  1.30150423E+00 -2.38335154E-32 -5.59776334E-18  1.30150423E+00
 -2.38335154E-32 -5.59776334E-18  1.30150423E+00 -2.38335154E-32 -5.59776334E-18
  1.30150423E+00 -2.38335154E-32 -5.59776334E-18  1.30150423E+00 -2.38335154E-32
 -5.59776334E-18  1.30150423E+00 -2.38335154E-32 -5.59776334E-18  1.30150423E+00
 -2.38335154E-32 -4.99858520E-01 -1.40950099E+00  2.70856440E-32 -4.99858520E-01
 -1.40950099E+00  2.70856440E-32 -4.99858520E-01 -1.40950099E+00  2.70856440E-32
 -4.99858520E-01 -1.40950099E+00  2.70856440E-32 -4.99858520E-01 -1.40950099E+00
  2.70856440E-32 -4.99858520E-01 -1.40950099E+00  2.70856440E-32 -4.99858520E-01
 -1.40950099E+00  2.70856440E-32 -4.99858520E-01 -1.40950099E+00  2.70856440E-32
 -4.99858520E-01 -1.40950099E+00  2.70856440E-32 -4.99858520E-01 -1.40950099E+00
  2.70856440E-32 -4.99858520E-01 -1.40950099E+00  2.70856440E-32 -4.99858520E-01
 -1.40950099E+00  2.70856440E-32 -4.99858520E-01 -1.40950099E+00  2.70856440E-32
 -4.99858520E-01 -1.40950099E+00  2.70856440E-32 -2.68720976E+00 -1.74118995E+00
  3.87365934E-32 -2.68720976E+00 -1.74118995E+00  3.87365934E-32 -2.68720976E+00
 -1.74118995E+00  3.87365934E-32 -2.68720976E+00 -1.74118995E+00  3.87365934E-32
 -2.68720976E+00 -1.74118995E+00  3.87365934E-32 -2.68720976E+00 -1.74118995E+00
  3.87365934E-32 -2.68720976E+00 -1.74118995E+00  3.87365934E-32 -2.68720976E+00
 -1.74118995E+00  3.87365934E-32 -2.68720976E+00 -1.74118995E+00  3.87365934E-32
 -2.68720976E+00 -1.74118995E+00  3.87365934E-32 -2.68720976E+00 -1.74118995E+00
  3.87365934E-32 -2.68720976E+00 -1.74118995E+00  3.87365934E-32 -2.68720976E+00
 -1.74118995E+00  3.87365934E-32 -2.68720976E+00 -1.74118995E+00  3.87365934E-32
Num ILSW                                   I              100
ILSW                                       I   N=         100
           0           0           0           0           2           0
           0           0           0           0           0          -1
           5           0           0           0           0           0
           0           0           0           0           0           0
           1           0           0           0           0           0
           0           0      100000           0          -1           0
           0           0           0           0           0           0
           0           0           0           1           0           0
           0 -2000000000           1           0           0           0
           0           0           4          52           0           0
           0           0           0           0           0           0
           0           0           0           5           0           1
           0           0           0           0           0           0
           0           0           0           0           0           0
           0           0           0           0           0           0
           0           0           0           0           0           0
           0           0           0           0
Num RLSW                                   I               52
RLSW                                       R   N=          52
  1.00000000E+00  1.00000000E+00  1.00000000E+00  1.00000000E+00  1.00000000E+00
  0.00000000E+00  0.00000000E+00  1.00000000E+00  0.00000000E+00  0.00000000E+00
  0.00000000E+00  0.00000000E+00  1.00000000E+00  0.00000000E+00  0.00000000E+00
  0.00000000E+00  0.00000000E+00  1.00000000E+00  0.00000000E+00  0.00000000E+00
  0.00000000E+00  0.00000000E+00  1.00000000E+00  0.00000000E+00  0.00000000E+00
  0.00000000E+00  0.00000000E+00  1.00000000E+00  0.00000000E+00  0.00000000E+00
  0.00000000E+00  0.00000000E+00  1.00000000E+00  0.00000000E+00  0.00000000E+00
  0.00000000E+00  0.00000000E+00  0.00000000E+00  1.00000000E+00  1.00000000E+00
  0.00000000E+00  1.00000000E+00  0.00000000E+00  0.00000000E+00  0.00000000E+00
  0.00000000E+00  0.00000000E+00  0.00000000E+00  0.00000000E+00  0.00000000E+00
  0.00000000E+00  0.00000000E+00
MxBond                                     I                2
NBond                                      I   N=           5
           1           2           2           2           1
IBond                                      I   N=          10
           2           0           1           3           2           4
           3           5           4           0
RBond                                      R   N=          10
  1.00000000E+00  0.00000000E+00  1.00000000E+00  1.00000000E+00  1.00000000E+00
  1.00000000E+00  1.00000000E+00  2.00000000E+00  2.00000000E+00  0.00000000E+00
Virial Ratio                               R      2.002302941422663E+00
SCF Energy                                 R     -2.795012523945896E+02
MP2 Energy                                 R     -2.804465244371156E+02
Total Energy                               R     -2.804465244371156E+02
Post-SCF wavefunction norm                 R      1.120231231803847E+00
RMS Density                                R      3.774683656766296E-09
Job Status                                 I                1
Nuclear derivative order                   I                0
External E-field                           R   N=          35
  0.00000000E+00  0.00000000E+00  0.00000000E+00  0.00000000E+00  0.00000000E+00
  0.00000000E+00  0.00000000E+00  0.00000000E+00  0.00000000E+00  0.00000000E+00
  0.00000000E+00  0.00000000E+00  0.00000000E+00  0.00000000E+00  0.00000000E+00
  0.00000000E+00  0.00000000E+00  0.00000000E+00  0.00000000E+00  0.00000000E+00
  0.00000000E+00  0.00000000E+00  0.00000000E+00  0.00000000E+00  0.00000000E+00
  0.00000000E+00  0.00000000E+00  0.00000000E+00  0.00000000E+00  0.00000000E+00
  0.00000000E+00  0.00000000E+00  0.00000000E+00  0.00000000E+00  0.00000000E+00
IOpCl                                      I                0
IROHF                                      I                0
Alpha Orbital Energies                     R   N=         207
 -2.06913893E+01 -2.06838084E+01 -2.06592391E+01 -1.58121662E+01 -1.62412033E+00
 -1.49637804E+00 -1.25331407E+00 -9.48536228E-01 -7.74539218E-01 -7.58256363E-01
 -7.12120078E-01 -6.75867145E-01 -6.19838303E-01 -5.91022539E-01 -4.85388795E-01
 -4.72947724E-01  2.96164996E-02  7.19409188E-02  8.59036102E-02  1.01130276E-01
  1.34141546E-01  1.34198605E-01  1.44342653E-01  1.55193184E-01  1.78157978E-01
  1.93892053E-01  1.99599624E-01  2.06355413E-01  2.21171332E-01  2.35545653E-01
  2.37570945E-01  2.64573017E-01  2.93039012E-01  3.05130002E-01  3.10106375E-01
  3.42953169E-01  3.50439754E-01  3.88229679E-01  4.21153657E-01  4.30299423E-01
  5.26999215E-01  5.30852772E-01  5.61540795E-01  5.85011611E-01  6.26269128E-01
  6.36446256E-01  6.74079791E-01  6.84282302E-01  7.05097689E-01  7.12730038E-01
  7.23650962E-01  7.30671912E-01  7.44761928E-01  7.89117767E-01  7.91849058E-01
  8.09273598E-01  8.13037568E-01  8.32695843E-01  8.68260168E-01  9.07022378E-01
  9.23176875E-01  9.25655180E-01  9.60033401E-01  9.85346403E-01  9.86552725E-01
  1.01656250E+00  1.05316268E+00  1.05352416E+00  1.08848228E+00  1.12298532E+00
  1.14524628E+00  1.18721694E+00  1.22280620E+00  1.23068434E+00  1.33706975E+00
  1.34873219E+00  1.38875551E+00  1.45216894E+00  1.48743969E+00  1.50874079E+00
  1.54075965E+00  1.56890330E+00  1.58124195E+00  1.61677225E+00  1.66445132E+00
  1.67109714E+00  1.70320967E+00  1.79188731E+00  1.82657013E+00  1.83204993E+00
  1.88025815E+00  1.91357064E+00  1.95991056E+00  1.99417888E+00  2.00648044E+00
  2.07638524E+00  2.11603224E+00  2.13046619E+00  2.15066975E+00  2.22511322E+00
  2.26344363E+00  2.26560434E+00  2.28731075E+00  2.31863795E+00  2.35635377E+00
  2.38891803E+00  2.42813217E+00  2.42867195E+00  2.45314894E+00  2.46497712E+00
  2.47733737E+00  2.50981654E+00  2.58997635E+00  2.59409262E+00  2.61766820E+00
  2.62852054E+00  2.62984823E+00  2.67182977E+00  2.76383485E+00  2.83357622E+00
  2.87063343E+00  2.89360749E+00  2.89898317E+00  2.92228475E+00  2.95587906E+00
  3.03812558E+00  3.07411868E+00  3.12742609E+00  3.20782212E+00  3.23450204E+00
  3.31432089E+00  3.33033559E+00  3.50091242E+00  3.65645431E+00  3.84087949E+00
  3.84455224E+00  4.15156642E+00  4.16174402E+00  4.18628354E+00  4.26351018E+00
  4.34524341E+00  4.39774535E+00  4.46427979E+00  4.51726210E+00  4.67552922E+00
  4.71199578E+00  4.81101413E+00  4.82239589E+00  4.83153702E+00  4.89781618E+00
  5.02114300E+00  5.07685812E+00  5.09941907E+00  5.13866781E+00  5.18683411E+00
  5.24893930E+00  5.27085755E+00  5.30837228E+00  5.33602265E+00  5.36824999E+00
  5.62371157E+00  5.67409136E+00  5.77333789E+00  5.82936491E+00  5.95752228E+00
  6.17658552E+00  6.30873400E+00  6.33584267E+00  6.39253598E+00  6.49265263E+00
  6.50362783E+00  6.61798448E+00  6.66389690E+00  6.69690498E+00  6.76372366E+00
  6.76486450E+00  6.83495849E+00  6.89533699E+00  7.00798476E+00  7.04970961E+00
  7.05821353E+00  7.09045970E+00  7.12712146E+00  7.15348580E+00  7.18350507E+00
  7.22157104E+00  7.24487363E+00  7.31178318E+00  7.32441100E+00  7.35981267E+00
  7.40418148E+00  7.42820193E+00  7.48833901E+00  7.60096582E+00  7.61740467E+00
  7.63822002E+00  7.67219331E+00  7.79747235E+00  7.89847687E+00  8.08482756E+00
  8.31630194E+00  8.40946392E+00  8.54329824E+00  1.34092409E+01  1.43496854E+01
  1.51890375E+01  1.61576308E+01
Alpha MO coefficients                      R   N=       42849
  9.04569659E-05 -6.00882908E-04 -7.05346144E-04 -2.19641076E-06 -1.99212865E-05
 -2.66661817E-05  0.00000000E+00 -4.87643056E-05  4.99319653E-05  0.00000000E+00
  7.91446012E-05  2.91703533E-05  0.00000000E+00  3.09648719E-05  0.00000000E+00
  0.00000000E+00 -4.82449696E-05  2.51156217E-05 -5.87670098E-06  0.00000000E+00
  0.00000000E+00 -1.24909923E-04  1.27270186E-04  4.40774629E-03 -2.83414097E-04
  9.87677369E-06  1.45844768E-03  1.79911895E-03  1.04428912E-04  3.41959718E-06
  0.00000000E+00 -6.03331097E-04 -1.24810732E-05  0.00000000E+00 -1.03015129E-03
  7.99416919E-04  0.00000000E+00 -3.93322859E-04  7.80224812E-05  0.00000000E+00
  2.89479988E-05  0.00000000E+00  0.00000000E+00 -5.32783151E-05  9.94352226E-06
 -3.74109223E-04  0.00000000E+00  0.00000000E+00  7.30231542E-04 -9.21332214E-05
 -4.41565083E-04  0.00000000E+00  0.00000000E+00  2.30178722E-04 -2.67737877E-05
  0.00000000E+00  7.96782068E-05  9.36969373E-06  0.00000000E+00  0.00000000E+00
 -1.10030305E-04  9.44450695E-06  0.00000000E+00  2.55876032E-04 -3.55785175E-05
  0.00000000E+00  0.00000000E+00 -3.36877146E-04  9.15433663E-05  9.76913261E-01
 -9.23004564E-03  4.33119322E-02  2.12077929E-03 -9.11365148E-04  1.46331929E-03
 -1.38843872E-03  0.00000000E+00 -1.41622606E-03  1.42883369E-03  0.00000000E+00
  1.04928649E-04 -1.15504423E-03  0.00000000E+00 -1.27727704E-04 -9.95723738E-06
  0.00000000E+00  4.93875048E-05  0.00000000E+00  0.00000000E+00 -3.59730212E-05
  1.72739080E-05  7.38987301E-04  0.00000000E+00  0.00000000E+00 -2.39177431E-04
 -3.32681082E-04 -3.62054848E-04  0.00000000E+00  0.00000000E+00 -3.19122511E-04
 -3.72496867E-04  0.00000000E+00  4.74346813E-05 -5.08106536E-05  0.00000000E+00
  0.00000000E+00 -3.92893612E-05 -1.21063395E-05  0.00000000E+00  2.14729310E-05
  2.07139737E-05  0.00000000E+00  0.00000000E+00 -3.00503931E-04 -1.10822230E-04
  3.76654809E-05  3.88401603E-05 -2.61057166E-04 -7.36724814E-04 -1.47785194E-04
 -2.63607218E-05 -9.58987743E-05  0.00000000E+00  2.52829698E-04  6.85957218E-04
  0.00000000E+00 -8.01068468E-04 -4.74606276E-04  0.00000000E+00 -1.30370682E-04
 -2.84974354E-05  0.00000000E+00 -1.73826762E-05  0.00000000E+00  0.00000000E+00
 -2.80420447E-05  1.49746694E-05 -3.27295432E-04  0.00000000E+00  0.00000000E+00
 -8.20472385E-04  1.27521920E-04 -3.70912441E-05  0.00000000E+00  0.00000000E+00
  9.03349313E-05 -1.08928010E-04  0.00000000E+00 -1.98458492E-05 -1.19405742E-04
  0.00000000E+00  0.00000000E+00 -6.62208485E-05 -1.37944750E-04  0.00000000E+00
 -5.17107162E-06 -1.59757214E-04  0.00000000E+00  0.00000000E+00  4.36956887E-05
 -4.04151949E-04 -2.27274440E-03  1.18791003E-04 -1.07978659E-04 -2.17733021E-04
  1.42034898E-04 -7.21185127E-06 -2.62143904E-05  0.00000000E+00  6.71479030E-05
  1.53400625E-04  0.00000000E+00  2.31590721E-04  2.10674274E-04  0.00000000E+00
  1.28110701E-04  3.00409493E-05  0.00000000E+00 -3.04895562E-06  0.00000000E+00
  0.00000000E+00 -1.77358774E-05  1.29466547E-06  1.61216305E-06  0.00000000E+00
  0.00000000E+00  7.73243234E-05  8.34058745E-05 -9.85152168E-05  0.00000000E+00
  0.00000000E+00  1.57313496E-04  1.65838004E-04  0.00000000E+00  1.60642311E-05
 -3.25149812E-06  0.00000000E+00  0.00000000E+00 -4.05475366E-06 -1.23225678E-05
  0.00000000E+00 -3.30112503E-05  4.46495760E-05  0.00000000E+00  0.00000000E+00
  7.90972484E-05  8.93880297E-05  4.25444718E-05 -9.99148804E-04 -4.63604061E-04
 -1.31525239E-05 -2.17985433E-05  1.50759596E-05  0.00000000E+00  7.78133897E-06
  2.68445905E-04  0.00000000E+00 -5.19206987E-05  1.26223831E-04  0.00000000E+00
  2.67094172E-05  0.00000000E+00  0.00000000E+00  1.06284413E-05  9.57668434E-06
 -3.39837179E-05  0.00000000E+00  0.00000000E+00  1.67055264E-05  4.00502062E-05
  1.11811832E-04  9.90305987E-05 -2.83910112E-05  6.97787835E-04  5.65815007E-04
  1.02914320E-05  2.15411221E-06  0.00000000E+00 -7.88712466E-05  1.23002295E-05
  0.00000000E+00  4.23495472E-04  9.61526819E-04  0.00000000E+00  3.26584172E-05
  9.43261718E-05  0.00000000E+00 -3.09705582E-06  0.00000000E+00  0.00000000E+00
 -1.94874589E-07 -3.37303326E-06 -3.20013015E-05  0.00000000E+00  0.00000000E+00
 -1.09297710E-05  7.00796848E-05 -1.53731368E-05  0.00000000E+00  0.00000000E+00
 -2.87168942E-04 -1.80948048E-04  0.00000000E+00  9.10264645E-06  6.09384051E-06
  0.00000000E+00  0.00000000E+00  2.39604159E-06 -1.79164683E-05  0.00000000E+00
 -4.31934332E-05 -4.05284875E-05  0.00000000E+00  0.00000000E+00 -8.14175423E-05
  4.17946689E-05  2.31105446E-03  4.00629641E-05  7.84818280E-05 -7.24289340E-05
 -4.43185115E-04  7.22885215E-06  1.56134423E-05  0.00000000E+00 -6.27599441E-05
 -5.11160450E-05  0.00000000E+00  2.37540590E-04 -2.31553388E-04  0.00000000E+00
 -1.66441564E-04 -5.81959379E-05  0.00000000E+00 -8.74945280E-06  0.00000000E+00
  0.00000000E+00  2.22523063E-05  2.07456232E-05  5.11725578E-06  0.00000000E+00
  0.00000000E+00 -1.16947173E-04 -5.05494974E-05 -8.00742062E-06  0.00000000E+00
  0.00000000E+00 -2.24653258E-04 -2.33169283E-04  0.00000000E+00  3.17922736E-06
 -1.62027884E-06  0.00000000E+00  0.00000000E+00  1.65587549E-06 -1.22736211E-05
  0.00000000E+00 -4.57947436E-05  8.03963869E-06  0.00000000E+00  0.00000000E+00
 -7.42587112E-05  1.77043676E-04  2.58589743E-04  1.46381108E-03 -7.79413917E-05
 -1.51002504E-03  4.43416875E-04 -1.44114029E-04  6.98079778E-07  0.00000000E+00
 -2.10401811E-03 -4.05977332E-04  0.00000000E+00  1.11093413E-03  8.03492791E-04
  0.00000000E+00 -1.71377881E-04  6.30791527E-05  0.00000000E+00 -1.23043003E-04
  0.00000000E+00  0.00000000E+00  2.43500646E-04  9.20512038E-05 -4.45528701E-04
  0.00000000E+00  0.00000000E+00  8.99819152E-04 -6.16708726E-05  7.37709090E-06
  0.00000000E+00  0.00000000E+00 -3.48799958E-04 -1.08861754E-04  0.00000000E+00
  1.49185712E-07  1.60302600E-05  0.00000000E+00  0.00000000E+00  1.72150252E-05
  1.07726455E-05  0.00000000E+00  1.55288051E-04 -7.58827199E-05  0.00000000E+00
  0.00000000E+00 -2.38046466E-04  5.37766072E-05  9.76649574E-01 -9.84417324E-03
  4.35714290E-02  4.53058928E-03 -4.57400605E-04  2.14709341E-03  4.72168656E-04
  0.00000000E+00 -2.38466131E-03 -5.97533294E-04  0.00000000E+00  1.12778341E-03
 -1.02788687E-05  0.00000000E+00  6.88511106E-07 -3.88931179E-05  0.00000000E+00
 -2.33197074E-04  0.00000000E+00  0.00000000E+00  1.02452608E-04  3.23426740E-05
  3.91121544E-04  0.00000000E+00  0.00000000E+00 -8.39846045E-04 -4.15894063E-04
 -1.46790983E-04  0.00000000E+00  0.00000000E+00  2.48068215E-04  9.55028954E-06
  0.00000000E+00  5.22729948E-05  1.72531671E-05  0.00000000E+00  0.00000000E+00
 -2.28112919E-05 -1.27697002E-05  0.00000000E+00  1.40024772E-04  9.97836672E-06
  0.00000000E+00  0.00000000E+00 -1.91845833E-04 -1.40054371E-04  4.80389791E-04
  2.19301439E-03  1.61733968E-04  1.48100988E-05 -4.89874067E-05 -2.49937043E-04
  0.00000000E+00  5.08562415E-05 -1.31812364E-03  0.00000000E+00  2.57355416E-04
 -3.68872825E-04  0.00000000E+00 -4.33056795E-06  0.00000000E+00  0.00000000E+00
  7.45060855E-05  7.18153588E-06 -1.58040308E-04  0.00000000E+00  0.00000000E+00
 -5.38628313E-04  2.30903471E-05  9.76828484E-01 -9.16819848E-03  4.34550806E-02
  6.04344330E-05 -1.05225823E-03 -1.49221466E-03  1.51094193E-03  0.00000000E+00
  1.50901499E-03 -1.35738256E-03  0.00000000E+00 -6.19508051E-04 -1.00897788E-03
  0.00000000E+00  5.37949432E-05  5.23851647E-06  0.00000000E+00  2.81145924E-05
  0.00000000E+00  0.00000000E+00 -1.19555141E-04  9.81375173E-06  7.64958171E-04
  0.00000000E+00  0.00000000E+00 -2.03933289E-04 -2.23887139E-04 -2.63395400E-04
  0.00000000E+00  0.00000000E+00  1.85674589E-04  1.59208308E-04  0.00000000E+00
 -6.32752775E-05  2.12617750E-06  0.00000000E+00  0.00000000E+00  1.75073737E-05
  8.10793524E-06  0.00000000E+00  4.59925854E-06  1.34359932E-04  0.00000000E+00
  0.00000000E+00  2.77946674E-04  6.36151026E-05 -4.50113769E-03 -2.13240980E-04