 Entering Gaussian System, Link 0=g16
 Input=hoono_d2_185p7231.gjf
 Output=hoono_d2_185p7231.log
 Initial command:
 /sw/contrib/gaussian/g16/B01/g16/l1.exe "/scr/Gau-22294.inp" -scrdir="/scr/"
 Entering Link 1 = /sw/contrib/gaussian/g16/B01/g16/l1.exe PID=     22295.
  
 Copyright (c) 1988-2017, Gaussian, Inc.  All Rights Reserved.
  
 This is part of the Gaussian(R) 16 program.  It is based on
 the Gaussian(R) 09 system (copyright 2009, Gaussian, Inc.),
 the Gaussian(R) 03 system (copyright 2003, Gaussian, Inc.),
 the Gaussian(R) 98 system (copyright 1998, Gaussian, Inc.),
 the Gaussian(R) 94 system (copyright 1995, Gaussian, Inc.),
 the Gaussian 92(TM) system (copyright 1992, Gaussian, Inc.),
 the Gaussian 90(TM) system (copyright 1990, Gaussian, Inc.),
 the Gaussian 88(TM) system (copyright 1988, Gaussian, Inc.),
 the Gaussian 86(TM) system (copyright 1986, Carnegie Mellon
 University), and the Gaussian 82(TM) system (copyright 1983,
 Carnegie Mellon University). Gaussian is a federally registered
 trademark of Gaussian, Inc.
  
 This software contains proprietary and confidential information,
 including trade secrets, belonging to Gaussian, Inc.
  
 This software is provided under written license and may be
 used, copied, transmitted, or stored only in accord with that
 written license.
  
 The following legend is applicable only to US Government
 contracts under FAR:
  
                    RESTRICTED RIGHTS LEGEND
  
 Use, reproduction and disclosure by the US Government is
 subject to restrictions as set forth in subparagraphs (a)
 and (c) of the Commercial Computer Software - Restricted
 Rights clause in FAR 52.227-19.
  
 Gaussian, Inc.
 340 Quinnipiac St., Bldg. 40, Wallingford CT 06492
  
  
 ---------------------------------------------------------------
 Warning -- This program may not be used in any manner that
 competes with the business of Gaussian, Inc. or will provide
 assistance to any competitor of Gaussian, Inc.  The licensee
 of this program is prohibited from giving any competitor of
 Gaussian, Inc. access to this program.  By using this program,
 the user acknowledges that Gaussian, Inc. is engaged in the
 business of creating and licensing software in the field of
 computational chemistry and represents and warrants to the
 licensee that it is not a competitor of Gaussian, Inc. and that
 it will not use this program in any manner prohibited above.
 ---------------------------------------------------------------
  

 Cite this work as:
 Gaussian 16, Revision B.01,
 M. J. Frisch, G. W. Trucks, H. B. Schlegel, G. E. Scuseria, 
 M. A. Robb, J. R. Cheeseman, G. Scalmani, V. Barone, 
 G. A. Petersson, H. Nakatsuji, X. Li, M. Caricato, A. V. Marenich, 
 J. Bloino, B. G. Janesko, R. Gomperts, B. Mennucci, H. P. Hratchian, 
 J. V. Ortiz, A. F. Izmaylov, J. L. Sonnenberg, D. Williams-Young, 
 F. Ding, F. Lipparini, F. Egidi, J. Goings, B. Peng, A. Petrone, 
 T. Henderson, D. Ranasinghe, V. G. Zakrzewski, J. Gao, N. Rega, 
 G. Zheng, W. Liang, M. Hada, M. Ehara, K. Toyota, R. Fukuda, 
 J. Hasegawa, M. Ishida, T. Nakajima, Y. Honda, O. Kitao, H. Nakai, 
 T. Vreven, K. Throssell, J. A. Montgomery, Jr., J. E. Peralta, 
 F. Ogliaro, M. J. Bearpark, J. J. Heyd, E. N. Brothers, K. N. Kudin, 
 V. N. Staroverov, T. A. Keith, R. Kobayashi, J. Normand, 
 K. Raghavachari, A. P. Rendell, J. C. Burant, S. S. Iyengar, 
 J. Tomasi, M. Cossi, J. M. Millam, M. Klene, C. Adamo, R. Cammi, 
 J. W. Ochterski, R. L. Martin, K. Morokuma, O. Farkas, 
 J. B. Foresman, and D. J. Fox, Gaussian, Inc., Wallingford CT, 2016.
 
 ******************************************
 Gaussian 16:  ES64L-G16RevB.01 20-Dec-2017
                14-Feb-2022 
 ******************************************
 %nproc=28
 Will use up to   28 processors via shared memory.
 %mem=120GB
 %chk=hoono_d2_185p7231.chk
 -------------------------------------
 #p SP mp2/aug-cc-pvtz density=current
 -------------------------------------
 1/30=1,38=1,172=1/1;
 2/12=2,17=6,18=5,40=1/2;
 3/5=16,6=1,7=10,11=9,25=1,30=1,71=1/1,2,3;
 4//1;
 5/5=2,38=5/2;
 8/6=4,10=1/1;
 9/15=1,16=-3/6;
 10/5=1,13=10/2;
 6/7=2,8=2,9=2,10=2,22=-1/1;
 99/5=1,9=1/99;
 Leave Link    1 at Mon Feb 14 22:14:57 2022, MaxMem= 16106127360 cpu:               2.9 elap:               0.1
 (Enter /sw/contrib/gaussian/g16/B01/g16/l101.exe)
 -----
 title
 -----
 Symbolic Z-matrix:
 Charge =  0 Multiplicity = 1
 H
 O                    1    r1
 O                    2    r2       1    a1
 N                    3    r3       2    a2       1    d1       0
 O                    4    r4       3    a3       2    d2       0
       Variables:
  r1                    0.96898                  
  r2                    1.45492                  
  r3                    1.45878                  
  r4                    1.17073                  
  a1                   97.59495                  
  a2                  102.29752                  
  a3                  109.06955                  
  d1                  180.                       
  d2                  185.72313                  
 
 ITRead=  0  0  0  0  0
 MicOpt= -1 -1 -1 -1 -1
 NAtoms=      5 NQM=        5 NQMF=       0 NMMI=      0 NMMIF=      0
                NMic=       0 NMicF=      0.
                    Isotopes and Nuclear Properties:
 (Nuclear quadrupole moments (NQMom) in fm**2, nuclear magnetic moments (NMagM)
  in nuclear magnetons)

  Atom         1           2           3           4           5
 IAtWgt=           1          16          16          14          16
 AtmWgt=   1.0078250  15.9949146  15.9949146  14.0030740  15.9949146
 NucSpn=           1           0           0           2           0
 AtZEff=  -0.0000000  -0.0000000  -0.0000000  -0.0000000  -0.0000000
 NQMom=    0.0000000   0.0000000   0.0000000   2.0440000   0.0000000
 NMagM=    2.7928460   0.0000000   0.0000000   0.4037610   0.0000000
 AtZNuc=   1.0000000   8.0000000   8.0000000   7.0000000   8.0000000
 Leave Link  101 at Mon Feb 14 22:14:57 2022, MaxMem= 16106127360 cpu:               2.3 elap:               0.1
 (Enter /sw/contrib/gaussian/g16/B01/g16/l202.exe)
                          Input orientation:                          
 ---------------------------------------------------------------------
 Center     Atomic      Atomic             Coordinates (Angstroms)
 Number     Number       Type             X           Y           Z
 ---------------------------------------------------------------------
      1          1           0        0.000000    0.000000    0.000000
      2          8           0        0.000000    0.000000    0.968976
      3          8           0        1.442156    0.000000    1.161271
      4          7           0        1.561752    0.000000    2.615144
      5          8           0        2.690371    0.110340    2.906091
 ---------------------------------------------------------------------
                    Distance matrix (angstroms):
                    1          2          3          4          5
     1  H    0.000000
     2  O    0.968976   0.000000
     3  O    1.851584   1.454919   0.000000
     4  N    3.045989   2.269127   1.458784   0.000000
     5  O    3.961772   3.317030   2.148165   1.170729   0.000000
 Stoichiometry    HNO3
 Framework group  C1[X(HNO3)]
 Deg. of freedom     9
 Full point group                 C1      NOp   1
 Largest Abelian subgroup         C1      NOp   1
 Largest concise Abelian subgroup C1      NOp   1
                         Standard orientation:                         
 ---------------------------------------------------------------------
 Center     Atomic      Atomic             Coordinates (Angstroms)
 Number     Number       Type             X           Y           Z
 ---------------------------------------------------------------------
      1          1           0        2.248315    0.433680   -0.028952
      2          8           0        1.597721   -0.284371   -0.022386
      3          8           0        0.400648    0.541187    0.025193
      4          7           0       -0.664084   -0.455914    0.038883
      5          8           0       -1.698335    0.087899   -0.033211
 ---------------------------------------------------------------------
 Rotational constants (GHZ):          54.6582449           5.0140951           4.5976010
 Leave Link  202 at Mon Feb 14 22:14:57 2022, MaxMem= 16106127360 cpu:               0.3 elap:               0.0
 (Enter /sw/contrib/gaussian/g16/B01/g16/l301.exe)
 Standard basis: Aug-CC-pVTZ (5D, 7F)
 Ernie: Thresh=  0.10000D-02 Tol=  0.10000D-05 Strict=F.
 Ernie:  12 primitive shells out of 131 were deleted.
 There are   245 symmetry adapted cartesian basis functions of A   symmetry.
 There are   207 symmetry adapted basis functions of A   symmetry.
   207 basis functions,   315 primitive gaussians,   245 cartesian basis functions
    16 alpha electrons       16 beta electrons
       nuclear repulsion energy       116.8797829054 Hartrees.
 IExCor=    0 DFT=F Ex=HF Corr=None ExCW=0 ScaHFX=  1.000000
 ScaDFX=  1.000000  1.000000  1.000000  1.000000 ScalE2=  1.000000  1.000000
 IRadAn=      5 IRanWt=     -1 IRanGd=            0 ICorTp=0 IEmpDi=  4
 NAtoms=    5 NActive=    5 NUniq=    5 SFac= 1.00D+00 NAtFMM=   60 NAOKFM=F Big=F
 Integral buffers will be    131072 words long.
 Raffenetti 1 integral format.
 Two-electron integral symmetry is turned on.
 Leave Link  301 at Mon Feb 14 22:14:57 2022, MaxMem= 16106127360 cpu:               2.2 elap:               0.1
 (Enter /sw/contrib/gaussian/g16/B01/g16/l302.exe)
 NPDir=0 NMtPBC=     1 NCelOv=     1 NCel=       1 NClECP=     1 NCelD=      1
         NCelK=      1 NCelE2=     1 NClLst=     1 CellRange=     0.0.
 One-electron integrals computed using PRISM.
 One-electron integral symmetry used in STVInt
 NBasis=   207 RedAO= T EigKep=  1.81D-04  NBF=   207
 NBsUse=   207 1.00D-06 EigRej= -1.00D+00 NBFU=   207
 Leave Link  302 at Mon Feb 14 22:14:58 2022, MaxMem= 16106127360 cpu:               6.3 elap:               0.3
 (Enter /sw/contrib/gaussian/g16/B01/g16/l303.exe)
 DipDrv:  MaxL=1.
 Leave Link  303 at Mon Feb 14 22:14:58 2022, MaxMem= 16106127360 cpu:               0.9 elap:               0.1
 (Enter /sw/contrib/gaussian/g16/B01/g16/l401.exe)
 ExpMin= 2.53D-02 ExpMax= 1.53D+04 ExpMxC= 5.22D+02 IAcc=3 IRadAn=         5 AccDes= 0.00D+00
 Harris functional with IExCor=  205 and IRadAn=       5 diagonalized for initial guess.
 HarFok:  IExCor=  205 AccDes= 0.00D+00 IRadAn=         5 IDoV= 1 UseB2=F ITyADJ=14
 ICtDFT=  3500011 ScaDFX=  1.000000  1.000000  1.000000  1.000000
 FoFCou: FMM=F IPFlag=           0 FMFlag=      100000 FMFlg1=           0
         NFxFlg=           0 DoJE=T BraDBF=F KetDBF=T FulRan=T
         wScrn=  0.000000 ICntrl=       500 IOpCl=  0 I1Cent=   200000004 NGrid=           0
         NMat0=    1 NMatS0=      1 NMatT0=    0 NMatD0=    1 NMtDS0=    0 NMtDT0=    0
 Petite list used in FoFCou.
 Harris En= -279.628495803693    
 JPrj=0 DoOrth=F DoCkMO=F.
 Leave Link  401 at Mon Feb 14 22:14:58 2022, MaxMem= 16106127360 cpu:               8.0 elap:               0.3
 (Enter /sw/contrib/gaussian/g16/B01/g16/l502.exe)
 Keep R1 ints in memory in canonical form, NReq=245616893.
 FoFCou: FMM=F IPFlag=           0 FMFlag=           0 FMFlg1=           0
         NFxFlg=           0 DoJE=F BraDBF=F KetDBF=F FulRan=T
         wScrn=  0.000000 ICntrl=       600 IOpCl=  0 I1Cent=           0 NGrid=           0
         NMat0=    1 NMatS0=  21528 NMatT0=    0 NMatD0=    1 NMtDS0=    0 NMtDT0=    0
 Symmetry not used in FoFCou.
 Two-electron integral symmetry not used.
 Closed shell SCF:
 Using DIIS extrapolation, IDIIS=  1040.
 NGot= 16106127360 LenX= 15874260251 LenY= 15874199785
 Requested convergence on RMS density matrix=1.00D-08 within 128 cycles.
 Requested convergence on MAX density matrix=1.00D-06.
 Requested convergence on             energy=1.00D-06.
 No special actions if energy rises.

 Cycle   1  Pass 1  IDiag  1:
 E= -279.370473914449    
 DIIS: error= 2.44D-02 at cycle   1 NSaved=   1.
 NSaved= 1 IEnMin= 1 EnMin= -279.370473914449     IErMin= 1 ErrMin= 2.44D-02
 ErrMax= 2.44D-02  0.00D+00 EMaxC= 1.00D-01 BMatC= 4.38D-01 BMatP= 4.38D-01
 IDIUse=3 WtCom= 7.56D-01 WtEn= 2.44D-01
 Coeff-Com:  0.100D+01
 Coeff-En:   0.100D+01
 Coeff:      0.100D+01
 Gap=     0.519 Goal=   None    Shift=    0.000
 GapD=    0.519 DampG=2.000 DampE=0.500 DampFc=1.0000 IDamp=-1.
 RMSDP=1.62D-03 MaxDP=9.93D-02              OVMax= 1.13D-01

 Cycle   2  Pass 1  IDiag  1:
 E= -279.452445324938     Delta-E=       -0.081971410489 Rises=F Damp=F
 DIIS: error= 1.76D-02 at cycle   2 NSaved=   2.
 NSaved= 2 IEnMin= 2 EnMin= -279.452445324938     IErMin= 2 ErrMin= 1.76D-02
 ErrMax= 1.76D-02  0.00D+00 EMaxC= 1.00D-01 BMatC= 7.16D-02 BMatP= 4.38D-01
 IDIUse=3 WtCom= 8.24D-01 WtEn= 1.76D-01
 Coeff-Com:  0.194D+00 0.806D+00
 Coeff-En:   0.000D+00 0.100D+01
 Coeff:      0.160D+00 0.840D+00
 Gap=     0.534 Goal=   None    Shift=    0.000
 RMSDP=8.98D-04 MaxDP=3.73D-02 DE=-8.20D-02 OVMax= 6.87D-02

 Cycle   3  Pass 1  IDiag  1:
 E= -279.481498861971     Delta-E=       -0.029053537033 Rises=F Damp=F
 DIIS: error= 1.02D-02 at cycle   3 NSaved=   3.
 NSaved= 3 IEnMin= 3 EnMin= -279.481498861971     IErMin= 3 ErrMin= 1.02D-02
 ErrMax= 1.02D-02  0.00D+00 EMaxC= 1.00D-01 BMatC= 2.86D-02 BMatP= 7.16D-02
 IDIUse=3 WtCom= 8.98D-01 WtEn= 1.02D-01
 Coeff-Com: -0.330D-01 0.378D+00 0.655D+00
 Coeff-En:   0.000D+00 0.240D+00 0.760D+00
 Coeff:     -0.296D-01 0.364D+00 0.666D+00
 Gap=     0.510 Goal=   None    Shift=    0.000
 RMSDP=3.76D-04 MaxDP=1.54D-02 DE=-2.91D-02 OVMax= 3.79D-02

 Cycle   4  Pass 1  IDiag  1:
 E= -279.500480425315     Delta-E=       -0.018981563344 Rises=F Damp=F
 DIIS: error= 1.28D-03 at cycle   4 NSaved=   4.
 NSaved= 4 IEnMin= 4 EnMin= -279.500480425315     IErMin= 4 ErrMin= 1.28D-03
 ErrMax= 1.28D-03  0.00D+00 EMaxC= 1.00D-01 BMatC= 4.91D-04 BMatP= 2.86D-02
 IDIUse=3 WtCom= 9.87D-01 WtEn= 1.28D-02
 Coeff-Com: -0.117D-01 0.575D-01 0.158D+00 0.796D+00
 Coeff-En:   0.000D+00 0.000D+00 0.000D+00 0.100D+01
 Coeff:     -0.115D-01 0.567D-01 0.156D+00 0.799D+00
 Gap=     0.502 Goal=   None    Shift=    0.000
 RMSDP=9.01D-05 MaxDP=2.16D-03 DE=-1.90D-02 OVMax= 1.11D-02

 Cycle   5  Pass 1  IDiag  1:
 E= -279.501154477702     Delta-E=       -0.000674052387 Rises=F Damp=F
 DIIS: error= 7.35D-04 at cycle   5 NSaved=   5.
 NSaved= 5 IEnMin= 5 EnMin= -279.501154477702     IErMin= 5 ErrMin= 7.35D-04
 ErrMax= 7.35D-04  0.00D+00 EMaxC= 1.00D-01 BMatC= 8.70D-05 BMatP= 4.91D-04
 IDIUse=3 WtCom= 9.93D-01 WtEn= 7.35D-03
 Coeff-Com:  0.613D-02-0.724D-01-0.118D+00 0.199D-01 0.116D+01
 Coeff-En:   0.000D+00 0.000D+00 0.000D+00 0.000D+00 0.100D+01
 Coeff:      0.609D-02-0.719D-01-0.117D+00 0.197D-01 0.116D+01
 Gap=     0.502 Goal=   None    Shift=    0.000
 RMSDP=7.62D-05 MaxDP=2.10D-03 DE=-6.74D-04 OVMax= 1.11D-02

 Cycle   6  Pass 1  IDiag  1:
 E= -279.501469311927     Delta-E=       -0.000314834225 Rises=F Damp=F
 DIIS: error= 2.84D-04 at cycle   6 NSaved=   6.
 NSaved= 6 IEnMin= 6 EnMin= -279.501469311927     IErMin= 6 ErrMin= 2.84D-04
 ErrMax= 2.84D-04  0.00D+00 EMaxC= 1.00D-01 BMatC= 1.66D-05 BMatP= 8.70D-05
 IDIUse=3 WtCom= 9.97D-01 WtEn= 2.84D-03
 Coeff-Com:  0.587D-03 0.169D-02 0.470D-02-0.130D+00-0.232D+00 0.135D+01
 Coeff-En:   0.000D+00 0.000D+00 0.000D+00 0.000D+00 0.000D+00 0.100D+01
 Coeff:      0.585D-03 0.169D-02 0.469D-02-0.129D+00-0.231D+00 0.135D+01
 Gap=     0.502 Goal=   None    Shift=    0.000
 RMSDP=4.53D-05 MaxDP=1.06D-03 DE=-3.15D-04 OVMax= 5.55D-03

 Cycle   7  Pass 1  IDiag  1:
 E= -279.501541901940     Delta-E=       -0.000072590013 Rises=F Damp=F
 DIIS: error= 1.21D-04 at cycle   7 NSaved=   7.
 NSaved= 7 IEnMin= 7 EnMin= -279.501541901940     IErMin= 7 ErrMin= 1.21D-04
 ErrMax= 1.21D-04  0.00D+00 EMaxC= 1.00D-01 BMatC= 4.47D-06 BMatP= 1.66D-05
 IDIUse=3 WtCom= 9.99D-01 WtEn= 1.21D-03
 Coeff-Com: -0.937D-03 0.135D-01 0.264D-01-0.239D-01-0.286D+00 0.387D+00
 Coeff-Com:  0.884D+00
 Coeff-En:   0.000D+00 0.000D+00 0.000D+00 0.000D+00 0.000D+00 0.000D+00
 Coeff-En:   0.100D+01
 Coeff:     -0.936D-03 0.135D-01 0.264D-01-0.239D-01-0.286D+00 0.387D+00
 Coeff:      0.884D+00
 Gap=     0.502 Goal=   None    Shift=    0.000
 RMSDP=1.33D-05 MaxDP=3.77D-04 DE=-7.26D-05 OVMax= 1.55D-03

 Cycle   8  Pass 1  IDiag  1:
 E= -279.501550756536     Delta-E=       -0.000008854596 Rises=F Damp=F
 DIIS: error= 5.58D-05 at cycle   8 NSaved=   8.
 NSaved= 8 IEnMin= 8 EnMin= -279.501550756536     IErMin= 8 ErrMin= 5.58D-05
 ErrMax= 5.58D-05  0.00D+00 EMaxC= 1.00D-01 BMatC= 6.07D-07 BMatP= 4.47D-06
 IDIUse=1 WtCom= 1.00D+00 WtEn= 0.00D+00
 Coeff-Com: -0.449D-03 0.345D-02 0.762D-02 0.274D-01-0.409D-01-0.198D+00
 Coeff-Com:  0.175D+00 0.103D+01
 Coeff:     -0.449D-03 0.345D-02 0.762D-02 0.274D-01-0.409D-01-0.198D+00
 Coeff:      0.175D+00 0.103D+01
 Gap=     0.502 Goal=   None    Shift=    0.000
 RMSDP=6.89D-06 MaxDP=2.00D-04 DE=-8.85D-06 OVMax= 7.43D-04

 Cycle   9  Pass 1  IDiag  1:
 E= -279.501552528781     Delta-E=       -0.000001772245 Rises=F Damp=F
 DIIS: error= 1.58D-05 at cycle   9 NSaved=   9.
 NSaved= 9 IEnMin= 9 EnMin= -279.501552528781     IErMin= 9 ErrMin= 1.58D-05
 ErrMax= 1.58D-05  0.00D+00 EMaxC= 1.00D-01 BMatC= 6.97D-08 BMatP= 6.07D-07
 IDIUse=1 WtCom= 1.00D+00 WtEn= 0.00D+00
 Coeff-Com:  0.124D-03-0.173D-02-0.309D-02-0.210D-02 0.343D-01 0.247D-03
 Coeff-Com: -0.168D+00-0.103D+00 0.124D+01
 Coeff:      0.124D-03-0.173D-02-0.309D-02-0.210D-02 0.343D-01 0.247D-03
 Coeff:     -0.168D+00-0.103D+00 0.124D+01
 Gap=     0.502 Goal=   None    Shift=    0.000
 RMSDP=1.95D-06 MaxDP=5.18D-05 DE=-1.77D-06 OVMax= 1.75D-04

 Cycle  10  Pass 1  IDiag  1:
 E= -279.501552691474     Delta-E=       -0.000000162693 Rises=F Damp=F
 DIIS: error= 4.00D-06 at cycle  10 NSaved=  10.
 NSaved=10 IEnMin=10 EnMin= -279.501552691474     IErMin=10 ErrMin= 4.00D-06
 ErrMax= 4.00D-06  0.00D+00 EMaxC= 1.00D-01 BMatC= 5.66D-09 BMatP= 6.97D-08
 IDIUse=1 WtCom= 1.00D+00 WtEn= 0.00D+00
 Coeff-Com:  0.310D-04-0.240D-03-0.320D-03-0.271D-02 0.156D-02 0.198D-01
 Coeff-Com: -0.128D-01-0.745D-01-0.836D-01 0.115D+01
 Coeff:      0.310D-04-0.240D-03-0.320D-03-0.271D-02 0.156D-02 0.198D-01
 Coeff:     -0.128D-01-0.745D-01-0.836D-01 0.115D+01
 Gap=     0.502 Goal=   None    Shift=    0.000
 RMSDP=5.17D-07 MaxDP=2.10D-05 DE=-1.63D-07 OVMax= 4.19D-05

 Cycle  11  Pass 1  IDiag  1:
 E= -279.501552704667     Delta-E=       -0.000000013193 Rises=F Damp=F
 DIIS: error= 1.98D-06 at cycle  11 NSaved=  11.
 NSaved=11 IEnMin=11 EnMin= -279.501552704667     IErMin=11 ErrMin= 1.98D-06
 ErrMax= 1.98D-06  0.00D+00 EMaxC= 1.00D-01 BMatC= 7.01D-10 BMatP= 5.66D-09
 IDIUse=1 WtCom= 1.00D+00 WtEn= 0.00D+00
 Coeff-Com: -0.219D-04 0.251D-03 0.499D-03 0.562D-03-0.438D-02-0.378D-02
 Coeff-Com:  0.218D-01 0.317D-01-0.141D+00-0.188D+00 0.128D+01
 Coeff:     -0.219D-04 0.251D-03 0.499D-03 0.562D-03-0.438D-02-0.378D-02
 Coeff:      0.218D-01 0.317D-01-0.141D+00-0.188D+00 0.128D+01
 Gap=     0.502 Goal=   None    Shift=    0.000
 RMSDP=1.93D-07 MaxDP=6.52D-06 DE=-1.32D-08 OVMax= 1.78D-05

 Cycle  12  Pass 1  IDiag  1:
 E= -279.501552706715     Delta-E=       -0.000000002048 Rises=F Damp=F
 DIIS: error= 5.51D-07 at cycle  12 NSaved=  12.
 NSaved=12 IEnMin=12 EnMin= -279.501552706715     IErMin=12 ErrMin= 5.51D-07
 ErrMax= 5.51D-07  0.00D+00 EMaxC= 1.00D-01 BMatC= 8.27D-11 BMatP= 7.01D-10
 IDIUse=1 WtCom= 1.00D+00 WtEn= 0.00D+00
 Coeff-Com:  0.159D-05-0.337D-04-0.736D-04 0.185D-03 0.119D-02-0.236D-02
 Coeff-Com: -0.457D-02 0.524D-02 0.457D-01-0.117D+00-0.301D+00 0.137D+01
 Coeff:      0.159D-05-0.337D-04-0.736D-04 0.185D-03 0.119D-02-0.236D-02
 Coeff:     -0.457D-02 0.524D-02 0.457D-01-0.117D+00-0.301D+00 0.137D+01
 Gap=     0.502 Goal=   None    Shift=    0.000
 RMSDP=8.55D-08 MaxDP=2.81D-06 DE=-2.05D-09 OVMax= 7.25D-06

 Cycle  13  Pass 1  IDiag  1:
 E= -279.501552707019     Delta-E=       -0.000000000303 Rises=F Damp=F
 DIIS: error= 1.81D-07 at cycle  13 NSaved=  13.
 NSaved=13 IEnMin=13 EnMin= -279.501552707019     IErMin=13 ErrMin= 1.81D-07
 ErrMax= 1.81D-07  0.00D+00 EMaxC= 1.00D-01 BMatC= 6.94D-12 BMatP= 8.27D-11
 IDIUse=1 WtCom= 1.00D+00 WtEn= 0.00D+00
 Coeff-Com:  0.148D-05-0.154D-04-0.252D-04-0.108D-03 0.110D-03 0.961D-03
 Coeff-Com: -0.866D-03-0.405D-02-0.286D-03 0.507D-01-0.346D-01-0.392D+00
 Coeff-Com:  0.138D+01
 Coeff:      0.148D-05-0.154D-04-0.252D-04-0.108D-03 0.110D-03 0.961D-03
 Coeff:     -0.866D-03-0.405D-02-0.286D-03 0.507D-01-0.346D-01-0.392D+00
 Coeff:      0.138D+01
 Gap=     0.502 Goal=   None    Shift=    0.000
 RMSDP=2.95D-08 MaxDP=5.80D-07 DE=-3.03D-10 OVMax= 3.23D-06

 Cycle  14  Pass 1  IDiag  1:
 E= -279.501552707052     Delta-E=       -0.000000000033 Rises=F Damp=F
 DIIS: error= 1.08D-07 at cycle  14 NSaved=  14.
 NSaved=14 IEnMin=14 EnMin= -279.501552707052     IErMin=14 ErrMin= 1.08D-07
 ErrMax= 1.08D-07  0.00D+00 EMaxC= 1.00D-01 BMatC= 1.18D-12 BMatP= 6.94D-12
 IDIUse=1 WtCom= 1.00D+00 WtEn= 0.00D+00
 Coeff-Com: -0.543D-06 0.766D-05 0.130D-04 0.231D-04-0.154D-03-0.671D-04
 Coeff-Com:  0.634D-03 0.875D-03-0.390D-02-0.538D-02 0.343D-01 0.158D-01
 Coeff-Com: -0.503D+00 0.146D+01
 Coeff:     -0.543D-06 0.766D-05 0.130D-04 0.231D-04-0.154D-03-0.671D-04
 Coeff:      0.634D-03 0.875D-03-0.390D-02-0.538D-02 0.343D-01 0.158D-01
 Coeff:     -0.503D+00 0.146D+01
 Gap=     0.502 Goal=   None    Shift=    0.000
 RMSDP=1.31D-08 MaxDP=2.98D-07 DE=-3.34D-11 OVMax= 1.87D-06

 Cycle  15  Pass 1  IDiag  1:
 E= -279.501552707057     Delta-E=       -0.000000000005 Rises=F Damp=F
 DIIS: error= 6.31D-08 at cycle  15 NSaved=  15.
 NSaved=15 IEnMin=15 EnMin= -279.501552707057     IErMin=15 ErrMin= 6.31D-08
 ErrMax= 6.31D-08  0.00D+00 EMaxC= 1.00D-01 BMatC= 3.40D-13 BMatP= 1.18D-12
 IDIUse=1 WtCom= 1.00D+00 WtEn= 0.00D+00
 Coeff-Com:  0.593D-07-0.163D-05-0.431D-05 0.967D-05 0.877D-04-0.177D-03
 Coeff-Com: -0.244D-03 0.235D-03 0.303D-02-0.806D-02-0.165D-01 0.887D-01
 Coeff-Com: -0.992D-02-0.969D+00 0.191D+01
 Coeff:      0.593D-07-0.163D-05-0.431D-05 0.967D-05 0.877D-04-0.177D-03
 Coeff:     -0.244D-03 0.235D-03 0.303D-02-0.806D-02-0.165D-01 0.887D-01
 Coeff:     -0.992D-02-0.969D+00 0.191D+01
 Gap=     0.502 Goal=   None    Shift=    0.000
 RMSDP=1.05D-08 MaxDP=2.67D-07 DE=-5.46D-12 OVMax= 1.68D-06

 Cycle  16  Pass 1  IDiag  1:
 E= -279.501552707059     Delta-E=       -0.000000000002 Rises=F Damp=F
 DIIS: error= 2.43D-08 at cycle  16 NSaved=  16.
 NSaved=16 IEnMin=16 EnMin= -279.501552707059     IErMin=16 ErrMin= 2.43D-08
 ErrMax= 2.43D-08  0.00D+00 EMaxC= 1.00D-01 BMatC= 4.74D-14 BMatP= 3.40D-13
 IDIUse=1 WtCom= 1.00D+00 WtEn= 0.00D+00
 Coeff-Com:  0.534D-07-0.650D-06-0.219D-06-0.833D-05-0.721D-05 0.734D-04
 Coeff-Com: -0.320D-05-0.236D-03-0.459D-03 0.362D-02 0.411D-03-0.365D-01
 Coeff-Com:  0.101D+00 0.999D-01-0.749D+00 0.158D+01
 Coeff:      0.534D-07-0.650D-06-0.219D-06-0.833D-05-0.721D-05 0.734D-04
 Coeff:     -0.320D-05-0.236D-03-0.459D-03 0.362D-02 0.411D-03-0.365D-01
 Coeff:      0.101D+00 0.999D-01-0.749D+00 0.158D+01
 Gap=     0.502 Goal=   None    Shift=    0.000
 RMSDP=4.05D-09 MaxDP=1.13D-07 DE=-2.05D-12 OVMax= 7.26D-07

 SCF Done:  E(RHF) =  -279.501552707     A.U. after   16 cycles
            NFock= 16  Conv=0.40D-08     -V/T= 2.0024
 KE= 2.788459292703D+02 PE=-8.950871081723D+02 EE= 2.198598432895D+02
 Leave Link  502 at Mon Feb 14 22:15:07 2022, MaxMem= 16106127360 cpu:              60.6 elap:               8.7
 (Enter /sw/contrib/gaussian/g16/B01/g16/l801.exe)
 ExpMin= 2.53D-02 ExpMax= 1.53D+04 ExpMxC= 5.22D+02 IAcc=3 IRadAn=         5 AccDes= 0.00D+00
 HarFok:  IExCor=  205 AccDes= 0.00D+00 IRadAn=         5 IDoV=-2 UseB2=F ITyADJ=14
 ICtDFT= 12500011 ScaDFX=  1.000000  1.000000  1.000000  1.000000
 Largest valence mixing into a core orbital is  2.08D-04
 Largest core mixing into a valence orbital is  3.63D-05
 Range of M.O.s used for correlation:     5   207
 NBasis=   207 NAE=    16 NBE=    16 NFC=     4 NFV=     0
 NROrb=    203 NOA=    12 NOB=    12 NVA=   191 NVB=   191

 **** Warning!!: The largest alpha MO coefficient is  0.17664450D+02

 Leave Link  801 at Mon Feb 14 22:15:07 2022, MaxMem= 16106127360 cpu:               2.2 elap:               0.1
 (Enter /sw/contrib/gaussian/g16/B01/g16/l906.exe)
 Frozen-core derivative calculation, NFC=   4 NFV=   0.
 FulOut=F Deriv=T AODrv=F NAtomX=     5
   MMem=          76  MDisk=          12 MDiskD=          12
  W3Min=      811440 MinDsk=     1524655 NBas6D=         245
 NBas2D=       30762    NTT=       30135    LW2=     3500000
    MDV= 16105643539 MDiskM=      328645 NBas2p=       30466
 Fully in-core method, ICMem=   960157634.
 IMap=   1   2   3   4   5   6   7   8   9  10  11  12  13  14  15  16
 JobTyp=1 Pass  1 fully in-core, NPsUse= 28.
 Compute canonical integrals.
 FoFCou: FMM=F IPFlag=           0 FMFlag=           0 FMFlg1=           0
         NFxFlg=           0 DoJE=F BraDBF=F KetDBF=F FulRan=T
         wScrn=  0.000000 ICntrl=       600 IOpCl=  1 I1Cent=           0 NGrid=           0
         NMat0=    1 NMatS0=  30762 NMatT0=    0 NMatD0=    1 NMtDS0=    0 NMtDT0=    0
 Symmetry not used in FoFCou.
 Spin components of T(2) and E(2):
     alpha-alpha T2 =       0.3401660130D-01 E2=     -0.1223908845D+00
     alpha-beta  T2 =       0.1868242945D+00 E2=     -0.7001957423D+00
     beta-beta   T2 =       0.3401660130D-01 E2=     -0.1223908845D+00
 The integrals were generated   1 times.
 ANorm=    0.1120204221D+01
 E2 =    -0.9449775113D+00 EUMP2 =    -0.28044653021832D+03
 Leave Link  906 at Mon Feb 14 22:15:16 2022, MaxMem= 16106127360 cpu:             252.2 elap:               9.1
 (Enter /sw/contrib/gaussian/g16/B01/g16/l1002.exe)
 Minotr:  Closed shell wavefunction.
          Computing MP2/KS-MP2 derivatives.
          Using Z-Vector for PSCF gradient.
          Skipping F1 and S1 gradient terms here.
          Frozen-core window.
          Direct CPHF calculation.
          Differentiating once with respect to electric field.
                with respect to dipole field.
          Electric field/nuclear overlap derivatives assumed to be zero.
          Requested convergence is 1.0D-10 RMS, and 1.0D-09 maximum.
          NewPWx=F KeepS1=T KeepF1=T KeepIn=T MapXYZ=F SortEE=F KeepMc=T.
 Keep R1 ints in memory in canonical form, NReq=245621348.
 FoFCou: FMM=F IPFlag=           0 FMFlag=           0 FMFlg1=           0
         NFxFlg=           0 DoJE=F BraDBF=F KetDBF=F FulRan=T
         wScrn=  0.000000 ICntrl=       600 IOpCl=  0 I1Cent=           0 NGrid=           0
         NMat0=    1 NMatS0=  21528 NMatT0=    0 NMatD0=    1 NMtDS0=    0 NMtDT0=    0
 Symmetry not used in FoFCou.
 Two-electron integral symmetry not used.
          MDV=   16106127360 using IRadAn=       5.
          Solving linear equations separately, MaxMat=       0.
          There are     1 degrees of freedom in the 1st order CPHF.  IDoFFX=0 NUNeed=     1.
 LinEq1:  Iter=  0 NonCon=     1 RMS=5.95D-03 Max=1.31D-01 NDo=     1
 AX will form     1 AO Fock derivatives at one time.
 LinEq1:  Iter=  1 NonCon=     1 RMS=1.90D-03 Max=3.81D-02 NDo=     1
 LinEq1:  Iter=  2 NonCon=     1 RMS=8.67D-04 Max=1.37D-02 NDo=     1
 LinEq1:  Iter=  3 NonCon=     1 RMS=3.86D-04 Max=7.79D-03 NDo=     1
 LinEq1:  Iter=  4 NonCon=     1 RMS=1.19D-04 Max=1.85D-03 NDo=     1
 LinEq1:  Iter=  5 NonCon=     1 RMS=4.55D-05 Max=7.18D-04 NDo=     1
 LinEq1:  Iter=  6 NonCon=     1 RMS=2.04D-05 Max=2.13D-04 NDo=     1
 LinEq1:  Iter=  7 NonCon=     1 RMS=8.18D-06 Max=1.37D-04 NDo=     1
 LinEq1:  Iter=  8 NonCon=     1 RMS=3.52D-06 Max=3.31D-05 NDo=     1
 LinEq1:  Iter=  9 NonCon=     1 RMS=9.78D-07 Max=1.23D-05 NDo=     1
 LinEq1:  Iter= 10 NonCon=     1 RMS=2.11D-07 Max=3.79D-06 NDo=     1
 LinEq1:  Iter= 11 NonCon=     1 RMS=5.39D-08 Max=1.48D-06 NDo=     1
 LinEq1:  Iter= 12 NonCon=     1 RMS=1.73D-08 Max=4.03D-07 NDo=     1
 LinEq1:  Iter= 13 NonCon=     1 RMS=3.81D-09 Max=6.42D-08 NDo=     1
 LinEq1:  Iter= 14 NonCon=     1 RMS=7.76D-10 Max=1.23D-08 NDo=     1
 LinEq1:  Iter= 15 NonCon=     1 RMS=1.81D-10 Max=2.86D-09 NDo=     1
 LinEq1:  Iter= 16 NonCon=     0 RMS=4.69D-11 Max=6.31D-10 NDo=     1
 Linear equations converged to 1.000D-10 1.000D-09 after    16 iterations.
 End of Minotr F.D. properties file   721 does not exist.
 End of Minotr F.D. properties file   722 does not exist.
 End of Minotr F.D. properties file   788 does not exist.
 Leave Link 1002 at Mon Feb 14 22:15:25 2022, MaxMem= 16106127360 cpu:              41.9 elap:               8.6
 (Enter /sw/contrib/gaussian/g16/B01/g16/l601.exe)
 Copying SCF densities to generalized density rwf, IOpCl= 0 IROHF=0.

 **********************************************************************

            Population analysis using the MP2 Density.

 **********************************************************************

 Orbital symmetries:
       Occupied  (A) (A) (A) (A) (A) (A) (A) (A) (A) (A) (A) (A)
                 (A) (A) (A) (A)
       Virtual   (A) (A) (A) (A) (A) (A) (A) (A) (A) (A) (A) (A)
                 (A) (A) (A) (A) (A) (A) (A) (A) (A) (A) (A) (A)
                 (A) (A) (A) (A) (A) (A) (A) (A) (A) (A) (A) (A)
                 (A) (A) (A) (A) (A) (A) (A) (A) (A) (A) (A) (A)
                 (A) (A) (A) (A) (A) (A) (A) (A) (A) (A) (A) (A)
                 (A) (A) (A) (A) (A) (A) (A) (A) (A) (A) (A) (A)
                 (A) (A) (A) (A) (A) (A) (A) (A) (A) (A) (A) (A)
                 (A) (A) (A) (A) (A) (A) (A) (A) (A) (A) (A) (A)
                 (A) (A) (A) (A) (A) (A) (A) (A) (A) (A) (A) (A)
                 (A) (A) (A) (A) (A) (A) (A) (A) (A) (A) (A) (A)
                 (A) (A) (A) (A) (A) (A) (A) (A) (A) (A) (A) (A)
                 (A) (A) (A) (A) (A) (A) (A) (A) (A) (A) (A) (A)
                 (A) (A) (A) (A) (A) (A) (A) (A) (A) (A) (A) (A)
                 (A) (A) (A) (A) (A) (A) (A) (A) (A) (A) (A) (A)
                 (A) (A) (A) (A) (A) (A) (A) (A) (A) (A) (A) (A)
                 (A) (A) (A) (A) (A) (A) (A) (A) (A) (A) (A)
 The electronic state is 1-A.
 Alpha  occ. eigenvalues --  -20.69072 -20.68440 -20.66000 -15.81276  -1.62405
 Alpha  occ. eigenvalues --   -1.49571  -1.25439  -0.94806  -0.77275  -0.75915
 Alpha  occ. eigenvalues --   -0.71213  -0.67901  -0.62057  -0.58935  -0.48522
 Alpha  occ. eigenvalues --   -0.47248
 Alpha virt. eigenvalues --    0.02963   0.07153   0.08603   0.10172   0.13218
 Alpha virt. eigenvalues --    0.13560   0.14410   0.15455   0.17804   0.19410
 Alpha virt. eigenvalues --    0.19949   0.20666   0.22093   0.23437   0.23867
 Alpha virt. eigenvalues --    0.26545   0.29343   0.30313   0.31169   0.34340
 Alpha virt. eigenvalues --    0.34991   0.38720   0.42118   0.43065   0.52533
 Alpha virt. eigenvalues --    0.53140   0.55831   0.58123   0.62603   0.63847
 Alpha virt. eigenvalues --    0.67184   0.68738   0.70650   0.71140   0.72515
 Alpha virt. eigenvalues --    0.72986   0.74477   0.78971   0.79438   0.80757
 Alpha virt. eigenvalues --    0.81565   0.83012   0.86806   0.90781   0.92191
 Alpha virt. eigenvalues --    0.92635   0.95609   0.97596   0.98547   1.01608
 Alpha virt. eigenvalues --    1.04945   1.05529   1.08546   1.11685   1.13975
 Alpha virt. eigenvalues --    1.19059   1.22177   1.23212   1.33828   1.35121
 Alpha virt. eigenvalues --    1.38810   1.45160   1.48747   1.50853   1.53808
 Alpha virt. eigenvalues --    1.56515   1.58181   1.61323   1.66294   1.66909
 Alpha virt. eigenvalues --    1.70400   1.79135   1.82843   1.83783   1.87999
 Alpha virt. eigenvalues --    1.91094   1.95596   1.99090   2.00791   2.07752
 Alpha virt. eigenvalues --    2.11983   2.13058   2.15142   2.22558   2.26389
 Alpha virt. eigenvalues --    2.26577   2.28999   2.31400   2.34510   2.38649
 Alpha virt. eigenvalues --    2.41841   2.43302   2.45394   2.46264   2.47761
 Alpha virt. eigenvalues --    2.50266   2.59047   2.59645   2.61856   2.62447
 Alpha virt. eigenvalues --    2.63547   2.66662   2.75486   2.82066   2.85424
 Alpha virt. eigenvalues --    2.88535   2.90079   2.92301   2.96189   3.02695
 Alpha virt. eigenvalues --    3.06914   3.12188   3.20513   3.22567   3.31514
 Alpha virt. eigenvalues --    3.34219   3.51499   3.64013   3.83682   3.84697
 Alpha virt. eigenvalues --    4.14892   4.16186   4.18407   4.25664   4.35183
 Alpha virt. eigenvalues --    4.39353   4.46433   4.51920   4.65847   4.70967
 Alpha virt. eigenvalues --    4.80577   4.82412   4.82721   4.89896   5.02267
 Alpha virt. eigenvalues --    5.07494   5.10457   5.14645   5.17910   5.24372
 Alpha virt. eigenvalues --    5.27288   5.30560   5.32913   5.35519   5.60592
 Alpha virt. eigenvalues --    5.67420   5.76880   5.82886   5.95804   6.16903
 Alpha virt. eigenvalues --    6.30974   6.33730   6.39415   6.49345   6.50539
 Alpha virt. eigenvalues --    6.61454   6.66733   6.69872   6.75671   6.76396
 Alpha virt. eigenvalues --    6.83238   6.89810   7.01451   7.05408   7.05853
 Alpha virt. eigenvalues --    7.09030   7.12504   7.15223   7.18158   7.22533
 Alpha virt. eigenvalues --    7.24195   7.30790   7.32620   7.34824   7.39930
 Alpha virt. eigenvalues --    7.43202   7.48353   7.59148   7.62557   7.63132
 Alpha virt. eigenvalues --    7.66901   7.78984   7.88638   8.09200   8.31310
 Alpha virt. eigenvalues --    8.40870   8.54340  13.39312  14.39044  15.16305
 Alpha virt. eigenvalues --   16.14966
          Condensed to atoms (all electrons):
               1          2          3          4          5
     1  H    0.589533   0.128409   0.019888   0.012434  -0.000638
     2  O    0.128409   8.321368  -0.173157  -0.090465   0.015391
     3  O    0.019888  -0.173157   8.470248  -0.130556  -0.038797
     4  N    0.012434  -0.090465  -0.130556   6.972684  -0.055714
     5  O   -0.000638   0.015391  -0.038797  -0.055714   8.272576
 Mulliken charges:
               1
     1  H    0.250373
     2  O   -0.201546
     3  O   -0.147626
     4  N    0.291617
     5  O   -0.192818
 Sum of Mulliken charges =  -0.00000
 Mulliken charges with hydrogens summed into heavy atoms:
               1
     2  O    0.048827
     3  O   -0.147626
     4  N    0.291617
     5  O   -0.192818
 Electronic spatial extent (au):  <R**2>=            252.7682
 Charge=             -0.0000 electrons
 Dipole moment (field-independent basis, Debye):
    X=              1.2152    Y=              0.7903    Z=             -0.0106  Tot=              1.4497
 Quadrupole moment (field-independent basis, Debye-Ang):
   XX=            -17.9834   YY=            -23.0931   ZZ=            -22.0161
   XY=              2.7856   XZ=             -0.1559   YZ=              0.0608
 Traceless Quadrupole moment (field-independent basis, Debye-Ang):
   XX=              3.0474   YY=             -2.0622   ZZ=             -0.9852
   XY=              2.7856   XZ=             -0.1559   YZ=              0.0608
 Octapole moment (field-independent basis, Debye-Ang**2):
  XXX=             18.1850  YYY=              1.7515  ZZZ=             -0.0860  XYY=              1.0831
  XXY=              6.1999  XXZ=             -0.1927  XZZ=             -1.7689  YZZ=              0.2558
  YYZ=             -0.1140  XYZ=             -0.1375
 Hexadecapole moment (field-independent basis, Debye-Ang**3):
 XXXX=           -189.8870 YYYY=            -41.0586 ZZZZ=            -18.3752 XXXY=             12.1151
 XXXZ=             -0.8486 YYYX=              1.0004 YYYZ=              0.1954 ZZZX=              0.1309
 ZZZY=              0.0421 XXYY=            -42.4211 XXZZ=            -41.6284 YYZZ=             -9.9043
 XXYZ=              0.0013 YYXZ=             -0.0477 ZZXY=              0.4749
 N-N= 1.168797829054D+02 E-N=-8.958706239144D+02  KE= 2.801978536120D+02
 No NMR shielding tensors so no spin-rotation constants.
 Leave Link  601 at Mon Feb 14 22:15:25 2022, MaxMem= 16106127360 cpu:               4.9 elap:               0.2
 (Enter /sw/contrib/gaussian/g16/B01/g16/l9999.exe)
 1\1\GINC-N2179\SP\RMP2-FC\Aug-CC-pVTZ\H1N1O3\CGAVINH\14-Feb-2022\0\\#p
  SP mp2/aug-cc-pvtz density=current\\title\\0,1\H\O,1,0.96897556\O,2,1
 .45491931,1,97.59494903\N,3,1.45878406,2,102.29752444,1,180.,0\O,4,1.1
 7072885,3,109.06955123,2,185.72312793,0\\Version=ES64L-G16RevB.01\Stat
 e=1-A\HF=-279.5015527\MP2=-280.4465302\RMSD=4.048e-09\Dipole=-0.145459
 ,-0.0042283,-0.5514623\Quadrupole=-1.5006486,-0.7402824,2.240931,-0.12
 67216,2.0943406,0.0430569\PG=C01 [X(H1N1O3)]\\@


 OUR LITTLE SYSTEMS HAVE THEIR DAY,    
   THEY HAVE THEIR DAY AND CEASE TO BE.
   THEY ARE BUT BROKEN LIGHTS OF THEE, 
 AND THOU, OH LORD, ART MORE THAN THEY.
          -------------------          
 LET KNOWLEDGE GROW FROM MORE TO MORE, 
   BUT MORE OF REVERENCE IN US DWELL.  
   THAT MIND AND SOUL, ACCORDING WELL, 
 MAY MAKE ONE MUSIC AS BEFORE.....     
          -------------------          
                    LORD TENNYSON      
 Job cpu time:       0 days  0 hours  6 minutes 25.6 seconds.
 Elapsed time:       0 days  0 hours  0 minutes 27.8 seconds.
 File lengths (MBytes):  RWF=     21 Int=      0 D2E=      0 Chk=      8 Scr=      1
 Normal termination of Gaussian 16 at Mon Feb 14 22:15:25 2022.
