 Entering Gaussian System, Link 0=g16
 Input=hoono_r1_0p983946.gjf
 Output=hoono_r1_0p983946.log
 Initial command:
 /sw/contrib/gaussian/g16/B01/g16/l1.exe "/scr/Gau-15383.inp" -scrdir="/scr/"
 Entering Link 1 = /sw/contrib/gaussian/g16/B01/g16/l1.exe PID=     15387.
  
 Copyright (c) 1988-2017, Gaussian, Inc.  All Rights Reserved.
  
 This is part of the Gaussian(R) 16 program.  It is based on
 the Gaussian(R) 09 system (copyright 2009, Gaussian, Inc.),
 the Gaussian(R) 03 system (copyright 2003, Gaussian, Inc.),
 the Gaussian(R) 98 system (copyright 1998, Gaussian, Inc.),
 the Gaussian(R) 94 system (copyright 1995, Gaussian, Inc.),
 the Gaussian 92(TM) system (copyright 1992, Gaussian, Inc.),
 the Gaussian 90(TM) system (copyright 1990, Gaussian, Inc.),
 the Gaussian 88(TM) system (copyright 1988, Gaussian, Inc.),
 the Gaussian 86(TM) system (copyright 1986, Carnegie Mellon
 University), and the Gaussian 82(TM) system (copyright 1983,
 Carnegie Mellon University). Gaussian is a federally registered
 trademark of Gaussian, Inc.
  
 This software contains proprietary and confidential information,
 including trade secrets, belonging to Gaussian, Inc.
  
 This software is provided under written license and may be
 used, copied, transmitted, or stored only in accord with that
 written license.
  
 The following legend is applicable only to US Government
 contracts under FAR:
  
                    RESTRICTED RIGHTS LEGEND
  
 Use, reproduction and disclosure by the US Government is
 subject to restrictions as set forth in subparagraphs (a)
 and (c) of the Commercial Computer Software - Restricted
 Rights clause in FAR 52.227-19.
  
 Gaussian, Inc.
 340 Quinnipiac St., Bldg. 40, Wallingford CT 06492
  
  
 ---------------------------------------------------------------
 Warning -- This program may not be used in any manner that
 competes with the business of Gaussian, Inc. or will provide
 assistance to any competitor of Gaussian, Inc.  The licensee
 of this program is prohibited from giving any competitor of
 Gaussian, Inc. access to this program.  By using this program,
 the user acknowledges that Gaussian, Inc. is engaged in the
 business of creating and licensing software in the field of
 computational chemistry and represents and warrants to the
 licensee that it is not a competitor of Gaussian, Inc. and that
 it will not use this program in any manner prohibited above.
 ---------------------------------------------------------------
  

 Cite this work as:
 Gaussian 16, Revision B.01,
 M. J. Frisch, G. W. Trucks, H. B. Schlegel, G. E. Scuseria, 
 M. A. Robb, J. R. Cheeseman, G. Scalmani, V. Barone, 
 G. A. Petersson, H. Nakatsuji, X. Li, M. Caricato, A. V. Marenich, 
 J. Bloino, B. G. Janesko, R. Gomperts, B. Mennucci, H. P. Hratchian, 
 J. V. Ortiz, A. F. Izmaylov, J. L. Sonnenberg, D. Williams-Young, 
 F. Ding, F. Lipparini, F. Egidi, J. Goings, B. Peng, A. Petrone, 
 T. Henderson, D. Ranasinghe, V. G. Zakrzewski, J. Gao, N. Rega, 
 G. Zheng, W. Liang, M. Hada, M. Ehara, K. Toyota, R. Fukuda, 
 J. Hasegawa, M. Ishida, T. Nakajima, Y. Honda, O. Kitao, H. Nakai, 
 T. Vreven, K. Throssell, J. A. Montgomery, Jr., J. E. Peralta, 
 F. Ogliaro, M. J. Bearpark, J. J. Heyd, E. N. Brothers, K. N. Kudin, 
 V. N. Staroverov, T. A. Keith, R. Kobayashi, J. Normand, 
 K. Raghavachari, A. P. Rendell, J. C. Burant, S. S. Iyengar, 
 J. Tomasi, M. Cossi, J. M. Millam, M. Klene, C. Adamo, R. Cammi, 
 J. W. Ochterski, R. L. Martin, K. Morokuma, O. Farkas, 
 J. B. Foresman, and D. J. Fox, Gaussian, Inc., Wallingford CT, 2016.
 
 ******************************************
 Gaussian 16:  ES64L-G16RevB.01 20-Dec-2017
                14-Feb-2022 
 ******************************************
 %nproc=28
 Will use up to   28 processors via shared memory.
 %mem=120GB
 %chk=hoono_r1_0p983946.chk
 -------------------------------------
 #p SP mp2/aug-cc-pvtz density=current
 -------------------------------------
 1/30=1,38=1,172=1/1;
 2/12=2,17=6,18=5,40=1/2;
 3/5=16,6=1,7=10,11=9,25=1,30=1,71=1/1,2,3;
 4//1;
 5/5=2,38=5/2;
 8/6=4,10=1/1;
 9/15=1,16=-3/6;
 10/5=1,13=10/2;
 6/7=2,8=2,9=2,10=2,22=-1/1;
 99/5=1,9=1/99;
 Leave Link    1 at Mon Feb 14 22:09:44 2022, MaxMem= 16106127360 cpu:               4.5 elap:               0.2
 (Enter /sw/contrib/gaussian/g16/B01/g16/l101.exe)
 -----
 title
 -----
 Symbolic Z-matrix:
 Charge =  0 Multiplicity = 1
 H
 O                    1    r1
 O                    2    r2       1    a1
 N                    3    r3       2    a2       1    d1       0
 O                    4    r4       3    a3       2    d2       0
       Variables:
  r1                    0.98395                  
  r2                    1.45492                  
  r3                    1.45878                  
  r4                    1.17073                  
  a1                   97.59495                  
  a2                  102.29752                  
  a3                  109.06955                  
  d1                  180.                       
  d2                  180.                       
 
 ITRead=  0  0  0  0  0
 MicOpt= -1 -1 -1 -1 -1
 NAtoms=      5 NQM=        5 NQMF=       0 NMMI=      0 NMMIF=      0
                NMic=       0 NMicF=      0.
                    Isotopes and Nuclear Properties:
 (Nuclear quadrupole moments (NQMom) in fm**2, nuclear magnetic moments (NMagM)
  in nuclear magnetons)

  Atom         1           2           3           4           5
 IAtWgt=           1          16          16          14          16
 AtmWgt=   1.0078250  15.9949146  15.9949146  14.0030740  15.9949146
 NucSpn=           1           0           0           2           0
 AtZEff=  -0.0000000  -0.0000000  -0.0000000  -0.0000000  -0.0000000
 NQMom=    0.0000000   0.0000000   0.0000000   2.0440000   0.0000000
 NMagM=    2.7928460   0.0000000   0.0000000   0.4037610   0.0000000
 AtZNuc=   1.0000000   8.0000000   8.0000000   7.0000000   8.0000000
 Leave Link  101 at Mon Feb 14 22:09:45 2022, MaxMem= 16106127360 cpu:               3.6 elap:               0.2
 (Enter /sw/contrib/gaussian/g16/B01/g16/l202.exe)
                          Input orientation:                          
 ---------------------------------------------------------------------
 Center     Atomic      Atomic             Coordinates (Angstroms)
 Number     Number       Type             X           Y           Z
 ---------------------------------------------------------------------
      1          1           0        0.000000    0.000000    0.000000
      2          8           0        0.000000    0.000000    0.983946
      3          8           0        1.442156    0.000000    1.176241
      4          7           0        1.561752    0.000000    2.630115
      5          8           0        2.695867    0.000000    2.920610
 ---------------------------------------------------------------------
                    Distance matrix (angstroms):
                    1          2          3          4          5
     1  H    0.000000
     2  O    0.983946   0.000000
     3  O    1.861010   1.454919   0.000000
     4  N    3.058851   2.269127   1.458784   0.000000
     5  O    3.974627   3.319392   2.148165   1.170729   0.000000
 Stoichiometry    HNO3
 Framework group  CS[SG(HNO3)]
 Deg. of freedom     7
 Full point group                 CS      NOp   2
 Largest Abelian subgroup         CS      NOp   2
 Largest concise Abelian subgroup C1      NOp   1
                         Standard orientation:                         
 ---------------------------------------------------------------------
 Center     Atomic      Atomic             Coordinates (Angstroms)
 Number     Number       Type             X           Y           Z
 ---------------------------------------------------------------------
      1          1           0        1.550651    1.701543    0.000000
      2          8           0        1.454067    0.722348    0.000000
      3          8           0        0.000000    0.672543    0.000000
      4          7           0       -0.261730   -0.762569    0.000000
      5          8           0       -1.418884   -0.940337    0.000000
 ---------------------------------------------------------------------
 Rotational constants (GHZ):          54.8914847           5.0088594           4.5900192
 Leave Link  202 at Mon Feb 14 22:09:45 2022, MaxMem= 16106127360 cpu:               3.2 elap:               0.2
 (Enter /sw/contrib/gaussian/g16/B01/g16/l301.exe)
 Standard basis: Aug-CC-pVTZ (5D, 7F)
 Ernie: Thresh=  0.10000D-02 Tol=  0.10000D-05 Strict=F.
 Ernie:  12 primitive shells out of 131 were deleted.
 There are   166 symmetry adapted cartesian basis functions of A'  symmetry.
 There are    79 symmetry adapted cartesian basis functions of A"  symmetry.
 There are   136 symmetry adapted basis functions of A'  symmetry.
 There are    71 symmetry adapted basis functions of A"  symmetry.
   207 basis functions,   315 primitive gaussians,   245 cartesian basis functions
    16 alpha electrons       16 beta electrons
       nuclear repulsion energy       116.7858913324 Hartrees.
 IExCor=    0 DFT=F Ex=HF Corr=None ExCW=0 ScaHFX=  1.000000
 ScaDFX=  1.000000  1.000000  1.000000  1.000000 ScalE2=  1.000000  1.000000
 IRadAn=      5 IRanWt=     -1 IRanGd=            0 ICorTp=0 IEmpDi=  4
 NAtoms=    5 NActive=    5 NUniq=    5 SFac= 1.00D+00 NAtFMM=   60 NAOKFM=F Big=F
 Integral buffers will be    131072 words long.
 Raffenetti 1 integral format.
 Two-electron integral symmetry is turned on.
 Leave Link  301 at Mon Feb 14 22:09:45 2022, MaxMem= 16106127360 cpu:               3.0 elap:               0.2
 (Enter /sw/contrib/gaussian/g16/B01/g16/l302.exe)
 NPDir=0 NMtPBC=     1 NCelOv=     1 NCel=       1 NClECP=     1 NCelD=      1
         NCelK=      1 NCelE2=     1 NClLst=     1 CellRange=     0.0.
 One-electron integrals computed using PRISM.
 One-electron integral symmetry used in STVInt
 NBasis=   207 RedAO= T EigKep=  1.83D-04  NBF=   136    71
 NBsUse=   207 1.00D-06 EigRej= -1.00D+00 NBFU=   136    71
 Leave Link  302 at Mon Feb 14 22:09:46 2022, MaxMem= 16106127360 cpu:               6.4 elap:               0.3
 (Enter /sw/contrib/gaussian/g16/B01/g16/l303.exe)
 DipDrv:  MaxL=1.
 Leave Link  303 at Mon Feb 14 22:09:46 2022, MaxMem= 16106127360 cpu:               1.8 elap:               0.1
 (Enter /sw/contrib/gaussian/g16/B01/g16/l401.exe)
 ExpMin= 2.53D-02 ExpMax= 1.53D+04 ExpMxC= 5.22D+02 IAcc=3 IRadAn=         5 AccDes= 0.00D+00
 Harris functional with IExCor=  205 and IRadAn=       5 diagonalized for initial guess.
 HarFok:  IExCor=  205 AccDes= 0.00D+00 IRadAn=         5 IDoV= 1 UseB2=F ITyADJ=14
 ICtDFT=  3500011 ScaDFX=  1.000000  1.000000  1.000000  1.000000
 FoFCou: FMM=F IPFlag=           0 FMFlag=      100000 FMFlg1=           0
         NFxFlg=           0 DoJE=T BraDBF=F KetDBF=T FulRan=T
         wScrn=  0.000000 ICntrl=       500 IOpCl=  0 I1Cent=   200000004 NGrid=           0
         NMat0=    1 NMatS0=      1 NMatT0=    0 NMatD0=    1 NMtDS0=    0 NMtDT0=    0
 Petite list used in FoFCou.
 Harris En= -279.628366412747    
 JPrj=0 DoOrth=F DoCkMO=F.
 Initial guess orbital symmetries:
       Occupied  (A') (A') (A') (A') (A') (A') (A') (A') (A') (A')
                 (A") (A') (A') (A") (A") (A')
       Virtual   (A") (A') (A') (A') (A') (A') (A") (A') (A') (A')
                 (A") (A') (A") (A') (A') (A") (A') (A") (A') (A')
                 (A') (A') (A') (A') (A') (A") (A') (A") (A') (A')
                 (A") (A') (A") (A') (A') (A") (A') (A") (A') (A')
                 (A") (A') (A") (A') (A") (A') (A') (A') (A") (A")
                 (A') (A') (A') (A') (A") (A') (A") (A') (A") (A')
                 (A') (A') (A") (A') (A') (A") (A') (A") (A') (A')
                 (A") (A') (A') (A") (A") (A') (A') (A") (A') (A')
                 (A') (A") (A') (A") (A") (A') (A') (A") (A') (A')
                 (A') (A") (A') (A") (A') (A") (A") (A') (A') (A')
                 (A") (A') (A") (A') (A') (A') (A') (A") (A") (A')
                 (A") (A') (A') (A') (A") (A') (A') (A') (A") (A')
                 (A") (A') (A') (A") (A") (A') (A') (A") (A") (A')
                 (A') (A') (A') (A") (A") (A') (A") (A') (A') (A')
                 (A") (A') (A") (A') (A') (A") (A') (A') (A') (A')
                 (A") (A') (A') (A") (A') (A") (A') (A") (A') (A")
                 (A') (A") (A') (A") (A') (A") (A") (A") (A') (A')
                 (A") (A') (A") (A') (A") (A') (A") (A") (A') (A')
                 (A') (A') (A') (A') (A') (A') (A') (A') (A') (A')
                 (A')
 The electronic state of the initial guess is 1-A'.
 Leave Link  401 at Mon Feb 14 22:09:46 2022, MaxMem= 16106127360 cpu:              10.2 elap:               0.5
 (Enter /sw/contrib/gaussian/g16/B01/g16/l502.exe)
 Keep R1 ints in memory in symmetry-blocked form, NReq=348887737.
 FoFCou: FMM=F IPFlag=           0 FMFlag=           0 FMFlg1=           0
         NFxFlg=           0 DoJE=F BraDBF=F KetDBF=F FulRan=T
         wScrn=  0.000000 ICntrl=       600 IOpCl=  0 I1Cent=           0 NGrid=           0
         NMat0=    1 NMatS0=  21528 NMatT0=    0 NMatD0=    1 NMtDS0=    0 NMtDT0=    0
 Petite list used in FoFCou.
 Closed shell SCF:
 Using DIIS extrapolation, IDIIS=  1040.
 NGot= 16106127360 LenX= 15988850015 LenY= 15988789549
 Requested convergence on RMS density matrix=1.00D-08 within 128 cycles.
 Requested convergence on MAX density matrix=1.00D-06.
 Requested convergence on             energy=1.00D-06.
 No special actions if energy rises.

 Cycle   1  Pass 1  IDiag  1:
 E= -279.370430386128    
 DIIS: error= 2.80D-02 at cycle   1 NSaved=   1.
 NSaved= 1 IEnMin= 1 EnMin= -279.370430386128     IErMin= 1 ErrMin= 2.80D-02
 ErrMax= 2.80D-02  0.00D+00 EMaxC= 1.00D-01 BMatC= 4.37D-01 BMatP= 4.37D-01
 IDIUse=3 WtCom= 7.20D-01 WtEn= 2.80D-01
 Coeff-Com:  0.100D+01
 Coeff-En:   0.100D+01
 Coeff:      0.100D+01
 Gap=     0.513 Goal=   None    Shift=    0.000
 GapD=    0.513 DampG=2.000 DampE=0.500 DampFc=1.0000 IDamp=-1.
 RMSDP=1.61D-03 MaxDP=9.93D-02              OVMax= 1.12D-01

 Cycle   2  Pass 1  IDiag  1:
 E= -279.452160364780     Delta-E=       -0.081729978652 Rises=F Damp=F
 DIIS: error= 1.76D-02 at cycle   2 NSaved=   2.
 NSaved= 2 IEnMin= 2 EnMin= -279.452160364780     IErMin= 2 ErrMin= 1.76D-02
 ErrMax= 1.76D-02  0.00D+00 EMaxC= 1.00D-01 BMatC= 7.07D-02 BMatP= 4.37D-01
 IDIUse=3 WtCom= 8.24D-01 WtEn= 1.76D-01
 Coeff-Com:  0.193D+00 0.807D+00
 Coeff-En:   0.000D+00 0.100D+01
 Coeff:      0.159D+00 0.841D+00
 Gap=     0.529 Goal=   None    Shift=    0.000
 RMSDP=8.94D-04 MaxDP=3.74D-02 DE=-8.17D-02 OVMax= 6.95D-02

 Cycle   3  Pass 1  IDiag  1:
 E= -279.480749284455     Delta-E=       -0.028588919674 Rises=F Damp=F
 DIIS: error= 1.03D-02 at cycle   3 NSaved=   3.
 NSaved= 3 IEnMin= 3 EnMin= -279.480749284455     IErMin= 3 ErrMin= 1.03D-02
 ErrMax= 1.03D-02  0.00D+00 EMaxC= 1.00D-01 BMatC= 2.85D-02 BMatP= 7.07D-02
 IDIUse=3 WtCom= 8.97D-01 WtEn= 1.03D-01
 Coeff-Com: -0.332D-01 0.379D+00 0.654D+00
 Coeff-En:   0.000D+00 0.242D+00 0.758D+00
 Coeff:     -0.297D-01 0.365D+00 0.665D+00
 Gap=     0.509 Goal=   None    Shift=    0.000
 RMSDP=3.75D-04 MaxDP=1.54D-02 DE=-2.86D-02 OVMax= 3.79D-02

 Cycle   4  Pass 1  IDiag  1:
 E= -279.499701208367     Delta-E=       -0.018951923912 Rises=F Damp=F
 DIIS: error= 1.26D-03 at cycle   4 NSaved=   4.
 NSaved= 4 IEnMin= 4 EnMin= -279.499701208367     IErMin= 4 ErrMin= 1.26D-03
 ErrMax= 1.26D-03  0.00D+00 EMaxC= 1.00D-01 BMatC= 4.83D-04 BMatP= 2.85D-02
 IDIUse=3 WtCom= 9.87D-01 WtEn= 1.26D-02
 Coeff-Com: -0.115D-01 0.562D-01 0.155D+00 0.800D+00
 Coeff-En:   0.000D+00 0.000D+00 0.000D+00 0.100D+01
 Coeff:     -0.113D-01 0.555D-01 0.153D+00 0.802D+00
 Gap=     0.501 Goal=   None    Shift=    0.000
 RMSDP=9.03D-05 MaxDP=2.77D-03 DE=-1.90D-02 OVMax= 1.12D-02

 Cycle   5  Pass 1  IDiag  1:
 E= -279.500373754305     Delta-E=       -0.000672545938 Rises=F Damp=F
 DIIS: error= 7.42D-04 at cycle   5 NSaved=   5.
 NSaved= 5 IEnMin= 5 EnMin= -279.500373754305     IErMin= 5 ErrMin= 7.42D-04
 ErrMax= 7.42D-04  0.00D+00 EMaxC= 1.00D-01 BMatC= 8.76D-05 BMatP= 4.83D-04
 IDIUse=3 WtCom= 9.93D-01 WtEn= 7.42D-03
 Coeff-Com:  0.613D-02-0.728D-01-0.118D+00 0.278D-01 0.116D+01
 Coeff-En:   0.000D+00 0.000D+00 0.000D+00 0.000D+00 0.100D+01
 Coeff:      0.608D-02-0.723D-01-0.117D+00 0.276D-01 0.116D+01
 Gap=     0.501 Goal=   None    Shift=    0.000
 RMSDP=7.60D-05 MaxDP=2.10D-03 DE=-6.73D-04 OVMax= 1.11D-02

 Cycle   6  Pass 1  IDiag  1:
 E= -279.500688328123     Delta-E=       -0.000314573818 Rises=F Damp=F
 DIIS: error= 2.82D-04 at cycle   6 NSaved=   6.
 NSaved= 6 IEnMin= 6 EnMin= -279.500688328123     IErMin= 6 ErrMin= 2.82D-04
 ErrMax= 2.82D-04  0.00D+00 EMaxC= 1.00D-01 BMatC= 1.68D-05 BMatP= 8.76D-05
 IDIUse=3 WtCom= 9.97D-01 WtEn= 2.82D-03
 Coeff-Com:  0.631D-03 0.123D-02 0.380D-02-0.133D+00-0.220D+00 0.135D+01
 Coeff-En:   0.000D+00 0.000D+00 0.000D+00 0.000D+00 0.000D+00 0.100D+01
 Coeff:      0.629D-03 0.122D-02 0.379D-02-0.133D+00-0.219D+00 0.135D+01
 Gap=     0.502 Goal=   None    Shift=    0.000
 RMSDP=4.53D-05 MaxDP=1.25D-03 DE=-3.15D-04 OVMax= 5.56D-03

 Cycle   7  Pass 1  IDiag  1:
 E= -279.500761356021     Delta-E=       -0.000073027898 Rises=F Damp=F
 DIIS: error= 1.26D-04 at cycle   7 NSaved=   7.
 NSaved= 7 IEnMin= 7 EnMin= -279.500761356021     IErMin= 7 ErrMin= 1.26D-04
 ErrMax= 1.26D-04  0.00D+00 EMaxC= 1.00D-01 BMatC= 4.63D-06 BMatP= 1.68D-05
 IDIUse=3 WtCom= 9.99D-01 WtEn= 1.26D-03
 Coeff-Com: -0.935D-03 0.137D-01 0.265D-01-0.270D-01-0.287D+00 0.398D+00
 Coeff-Com:  0.877D+00
 Coeff-En:   0.000D+00 0.000D+00 0.000D+00 0.000D+00 0.000D+00 0.000D+00
 Coeff-En:   0.100D+01
 Coeff:     -0.933D-03 0.136D-01 0.264D-01-0.270D-01-0.286D+00 0.397D+00
 Coeff:      0.877D+00
 Gap=     0.502 Goal=   None    Shift=    0.000
 RMSDP=1.34D-05 MaxDP=3.78D-04 DE=-7.30D-05 OVMax= 1.56D-03

 Cycle   8  Pass 1  IDiag  1:
 E= -279.500770429377     Delta-E=       -0.000009073356 Rises=F Damp=F
 DIIS: error= 5.65D-05 at cycle   8 NSaved=   8.
 NSaved= 8 IEnMin= 8 EnMin= -279.500770429377     IErMin= 8 ErrMin= 5.65D-05
 ErrMax= 5.65D-05  0.00D+00 EMaxC= 1.00D-01 BMatC= 6.15D-07 BMatP= 4.63D-06
 IDIUse=1 WtCom= 1.00D+00 WtEn= 0.00D+00
 Coeff-Com: -0.452D-03 0.350D-02 0.767D-02 0.279D-01-0.420D-01-0.197D+00
 Coeff-Com:  0.164D+00 0.104D+01
 Coeff:     -0.452D-03 0.350D-02 0.767D-02 0.279D-01-0.420D-01-0.197D+00
 Coeff:      0.164D+00 0.104D+01
 Gap=     0.501 Goal=   None    Shift=    0.000
 RMSDP=6.99D-06 MaxDP=2.05D-04 DE=-9.07D-06 OVMax= 7.54D-04

 Cycle   9  Pass 1  IDiag  1:
 E= -279.500772243593     Delta-E=       -0.000001814216 Rises=F Damp=F
 DIIS: error= 1.58D-05 at cycle   9 NSaved=   9.
 NSaved= 9 IEnMin= 9 EnMin= -279.500772243593     IErMin= 9 ErrMin= 1.58D-05
 ErrMax= 1.58D-05  0.00D+00 EMaxC= 1.00D-01 BMatC= 6.92D-08 BMatP= 6.15D-07
 IDIUse=1 WtCom= 1.00D+00 WtEn= 0.00D+00
 Coeff-Com:  0.122D-03-0.173D-02-0.305D-02-0.188D-02 0.339D-01-0.335D-03
 Coeff-Com: -0.163D+00-0.106D+00 0.124D+01
 Coeff:      0.122D-03-0.173D-02-0.305D-02-0.188D-02 0.339D-01-0.335D-03
 Coeff:     -0.163D+00-0.106D+00 0.124D+01
 Gap=     0.501 Goal=   None    Shift=    0.000
 RMSDP=1.94D-06 MaxDP=6.63D-05 DE=-1.81D-06 OVMax= 1.76D-04

 Cycle  10  Pass 1  IDiag  1:
 E= -279.500772404833     Delta-E=       -0.000000161240 Rises=F Damp=F
 DIIS: error= 4.15D-06 at cycle  10 NSaved=  10.
 NSaved=10 IEnMin=10 EnMin= -279.500772404833     IErMin=10 ErrMin= 4.15D-06
 ErrMax= 4.15D-06  0.00D+00 EMaxC= 1.00D-01 BMatC= 5.64D-09 BMatP= 6.92D-08
 IDIUse=1 WtCom= 1.00D+00 WtEn= 0.00D+00
 Coeff-Com:  0.322D-04-0.257D-03-0.346D-03-0.277D-02 0.193D-02 0.198D-01
 Coeff-Com: -0.133D-01-0.764D-01-0.740D-01 0.115D+01
 Coeff:      0.322D-04-0.257D-03-0.346D-03-0.277D-02 0.193D-02 0.198D-01
 Coeff:     -0.133D-01-0.764D-01-0.740D-01 0.115D+01
 Gap=     0.501 Goal=   None    Shift=    0.000
 RMSDP=5.07D-07 MaxDP=2.11D-05 DE=-1.61D-07 OVMax= 4.18D-05

 Cycle  11  Pass 1  IDiag  1:
 E= -279.500772417484     Delta-E=       -0.000000012652 Rises=F Damp=F
 DIIS: error= 2.03D-06 at cycle  11 NSaved=  11.
 NSaved=11 IEnMin=11 EnMin= -279.500772417484     IErMin=11 ErrMin= 2.03D-06
 ErrMax= 2.03D-06  0.00D+00 EMaxC= 1.00D-01 BMatC= 6.68D-10 BMatP= 5.64D-09
 IDIUse=1 WtCom= 1.00D+00 WtEn= 0.00D+00
 Coeff-Com: -0.214D-04 0.246D-03 0.489D-03 0.527D-03-0.430D-02-0.355D-02
 Coeff-Com:  0.206D-01 0.317D-01-0.139D+00-0.180D+00 0.127D+01
 Coeff:     -0.214D-04 0.246D-03 0.489D-03 0.527D-03-0.430D-02-0.355D-02
 Coeff:      0.206D-01 0.317D-01-0.139D+00-0.180D+00 0.127D+01
 Gap=     0.501 Goal=   None    Shift=    0.000
 RMSDP=1.78D-07 MaxDP=6.54D-06 DE=-1.27D-08 OVMax= 1.76D-05

 Cycle  12  Pass 1  IDiag  1:
 E= -279.500772419306     Delta-E=       -0.000000001822 Rises=F Damp=F
 DIIS: error= 5.92D-07 at cycle  12 NSaved=  12.
 NSaved=12 IEnMin=12 EnMin= -279.500772419306     IErMin=12 ErrMin= 5.92D-07
 ErrMax= 5.92D-07  0.00D+00 EMaxC= 1.00D-01 BMatC= 7.20D-11 BMatP= 6.68D-10
 IDIUse=1 WtCom= 1.00D+00 WtEn= 0.00D+00
 Coeff-Com:  0.119D-05-0.288D-04-0.617D-04 0.191D-03 0.105D-02-0.229D-02
 Coeff-Com: -0.405D-02 0.542D-02 0.413D-01-0.112D+00-0.283D+00 0.135D+01
 Coeff:      0.119D-05-0.288D-04-0.617D-04 0.191D-03 0.105D-02-0.229D-02
 Coeff:     -0.405D-02 0.542D-02 0.413D-01-0.112D+00-0.283D+00 0.135D+01
 Gap=     0.501 Goal=   None    Shift=    0.000
 RMSDP=7.16D-08 MaxDP=2.82D-06 DE=-1.82D-09 OVMax= 6.78D-06

 Cycle  13  Pass 1  IDiag  1:
 E= -279.500772419537     Delta-E=       -0.000000000231 Rises=F Damp=F
 DIIS: error= 1.69D-07 at cycle  13 NSaved=  13.
 NSaved=13 IEnMin=13 EnMin= -279.500772419537     IErMin=13 ErrMin= 1.69D-07
 ErrMax= 1.69D-07  0.00D+00 EMaxC= 1.00D-01 BMatC= 4.04D-12 BMatP= 7.20D-11
 IDIUse=1 WtCom= 1.00D+00 WtEn= 0.00D+00
 Coeff-Com:  0.129D-05-0.142D-04-0.227D-04-0.901D-04 0.128D-03 0.755D-03
 Coeff-Com: -0.816D-03-0.329D-02 0.609D-03 0.407D-01-0.344D-01-0.327D+00
 Coeff-Com:  0.132D+01
 Coeff:      0.129D-05-0.142D-04-0.227D-04-0.901D-04 0.128D-03 0.755D-03
 Coeff:     -0.816D-03-0.329D-02 0.609D-03 0.407D-01-0.344D-01-0.327D+00
 Coeff:      0.132D+01
 Gap=     0.501 Goal=   None    Shift=    0.000
 RMSDP=1.91D-08 MaxDP=5.64D-07 DE=-2.31D-10 OVMax= 1.57D-06

 Cycle  14  Pass 1  IDiag  1:
 E= -279.500772419551     Delta-E=       -0.000000000014 Rises=F Damp=F
 DIIS: error= 2.49D-08 at cycle  14 NSaved=  14.
 NSaved=14 IEnMin=14 EnMin= -279.500772419551     IErMin=14 ErrMin= 2.49D-08
 ErrMax= 2.49D-08  0.00D+00 EMaxC= 1.00D-01 BMatC= 1.97D-13 BMatP= 4.04D-12
 IDIUse=1 WtCom= 1.00D+00 WtEn= 0.00D+00
 Coeff-Com: -0.190D-06 0.312D-05 0.556D-05 0.430D-05-0.820D-04 0.453D-04
 Coeff-Com:  0.276D-03 0.232D-03-0.243D-02 0.138D-02 0.170D-01-0.257D-01
 Coeff-Com: -0.200D+00 0.121D+01
 Coeff:     -0.190D-06 0.312D-05 0.556D-05 0.430D-05-0.820D-04 0.453D-04
 Coeff:      0.276D-03 0.232D-03-0.243D-02 0.138D-02 0.170D-01-0.257D-01
 Coeff:     -0.200D+00 0.121D+01
 Gap=     0.501 Goal=   None    Shift=    0.000
 RMSDP=3.79D-09 MaxDP=9.12D-08 DE=-1.39D-11 OVMax= 3.42D-07

 SCF Done:  E(RHF) =  -279.500772420     A.U. after   14 cycles
            NFock= 14  Conv=0.38D-08     -V/T= 2.0024
 KE= 2.788180165139D+02 PE=-8.948940731831D+02 EE= 2.197893929173D+02
 Leave Link  502 at Mon Feb 14 22:09:50 2022, MaxMem= 16106127360 cpu:              57.8 elap:               3.7
 (Enter /sw/contrib/gaussian/g16/B01/g16/l801.exe)
 ExpMin= 2.53D-02 ExpMax= 1.53D+04 ExpMxC= 5.22D+02 IAcc=3 IRadAn=         5 AccDes= 0.00D+00
 HarFok:  IExCor=  205 AccDes= 0.00D+00 IRadAn=         5 IDoV=-2 UseB2=F ITyADJ=14
 ICtDFT= 12500011 ScaDFX=  1.000000  1.000000  1.000000  1.000000
 Largest valence mixing into a core orbital is  2.08D-04
 Largest core mixing into a valence orbital is  3.63D-05
 Range of M.O.s used for correlation:     5   207
 NBasis=   207 NAE=    16 NBE=    16 NFC=     4 NFV=     0
 NROrb=    203 NOA=    12 NOB=    12 NVA=   191 NVB=   191

 **** Warning!!: The largest alpha MO coefficient is  0.17363207D+02

 Leave Link  801 at Mon Feb 14 22:09:51 2022, MaxMem= 16106127360 cpu:               2.5 elap:               0.2
 (Enter /sw/contrib/gaussian/g16/B01/g16/l906.exe)
 Frozen-core derivative calculation, NFC=   4 NFV=   0.
 FulOut=F Deriv=T AODrv=F NAtomX=     5
   MMem=          76  MDisk=          12 MDiskD=          12
  W3Min=      811440 MinDsk=     1524655 NBas6D=         245
 NBas2D=       30762    NTT=       30135    LW2=     3500000
    MDV= 16105579913 MDiskM=      328644 NBas2p=       30466
 Fully in-core method, ICMem=   960157634.
 IMap=   1   2   3   4   5   6   7   8   9  10  11  12  13  14  15  16
 JobTyp=1 Pass  1 fully in-core, NPsUse= 28.
 Compute canonical integrals.
 FoFCou: FMM=F IPFlag=           0 FMFlag=           0 FMFlg1=           0
         NFxFlg=           0 DoJE=F BraDBF=F KetDBF=F FulRan=T
         wScrn=  0.000000 ICntrl=       600 IOpCl=  1 I1Cent=           0 NGrid=           0
         NMat0=    1 NMatS0=  30762 NMatT0=    0 NMatD0=    1 NMtDS0=    0 NMtDT0=    0
 Symmetry not used in FoFCou.
 Spin components of T(2) and E(2):
     alpha-alpha T2 =       0.3409768568D-01 E2=     -0.1224994542D+00
     alpha-beta  T2 =       0.1872901997D+00 E2=     -0.7007651879D+00
     beta-beta   T2 =       0.3409768568D-01 E2=     -0.1224994542D+00
 The integrals were generated   1 times.
 ANorm=    0.1120484525D+01
 E2 =    -0.9457640963D+00 EUMP2 =    -0.28044653651588D+03
 Leave Link  906 at Mon Feb 14 22:10:00 2022, MaxMem= 16106127360 cpu:             251.2 elap:               9.1
 (Enter /sw/contrib/gaussian/g16/B01/g16/l1002.exe)
 Minotr:  Closed shell wavefunction.
          Computing MP2/KS-MP2 derivatives.
          Using Z-Vector for PSCF gradient.
          Skipping F1 and S1 gradient terms here.
          Frozen-core window.
          Direct CPHF calculation.
          Differentiating once with respect to electric field.
                with respect to dipole field.
          Electric field/nuclear overlap derivatives assumed to be zero.
          Using symmetry in CPHF.
          Requested convergence is 1.0D-10 RMS, and 1.0D-09 maximum.
          NewPWx=F KeepS1=T KeepF1=T KeepIn=T MapXYZ=F SortEE=F KeepMc=T.
 Keep R1 ints in memory in symmetry-blocked form, NReq=348888868.
 FoFCou: FMM=F IPFlag=           0 FMFlag=           0 FMFlg1=           0
         NFxFlg=           0 DoJE=F BraDBF=F KetDBF=F FulRan=T
         wScrn=  0.000000 ICntrl=       600 IOpCl=  0 I1Cent=           0 NGrid=           0
         NMat0=    1 NMatS0=  21528 NMatT0=    0 NMatD0=    1 NMtDS0=    0 NMtDT0=    0
 Petite list used in FoFCou.
          MDV=   16106127360 using IRadAn=       5.
          Solving linear equations separately, MaxMat=       0.
          There are     1 degrees of freedom in the 1st order CPHF.  IDoFFX=0 NUNeed=     1.
 LinEq1:  Iter=  0 NonCon=     1 RMS=5.97D-03 Max=1.33D-01 NDo=     1
 AX will form     1 AO Fock derivatives at one time.
 LinEq1:  Iter=  1 NonCon=     1 RMS=1.91D-03 Max=3.82D-02 NDo=     1
 LinEq1:  Iter=  2 NonCon=     1 RMS=8.70D-04 Max=1.39D-02 NDo=     1
 LinEq1:  Iter=  3 NonCon=     1 RMS=3.87D-04 Max=7.80D-03 NDo=     1
 LinEq1:  Iter=  4 NonCon=     1 RMS=1.20D-04 Max=1.91D-03 NDo=     1
 LinEq1:  Iter=  5 NonCon=     1 RMS=4.52D-05 Max=7.20D-04 NDo=     1
 LinEq1:  Iter=  6 NonCon=     1 RMS=2.02D-05 Max=2.42D-04 NDo=     1
 LinEq1:  Iter=  7 NonCon=     1 RMS=8.14D-06 Max=1.59D-04 NDo=     1
 LinEq1:  Iter=  8 NonCon=     1 RMS=3.50D-06 Max=3.43D-05 NDo=     1
 LinEq1:  Iter=  9 NonCon=     1 RMS=9.56D-07 Max=1.33D-05 NDo=     1
 LinEq1:  Iter= 10 NonCon=     1 RMS=1.88D-07 Max=2.02D-06 NDo=     1
 LinEq1:  Iter= 11 NonCon=     1 RMS=3.51D-08 Max=3.64D-07 NDo=     1
 LinEq1:  Iter= 12 NonCon=     1 RMS=8.45D-09 Max=1.32D-07 NDo=     1
 LinEq1:  Iter= 13 NonCon=     1 RMS=1.52D-09 Max=2.65D-08 NDo=     1
 LinEq1:  Iter= 14 NonCon=     1 RMS=2.75D-10 Max=3.85D-09 NDo=     1
 LinEq1:  Iter= 15 NonCon=     0 RMS=4.96D-11 Max=5.61D-10 NDo=     1
 Linear equations converged to 1.000D-10 1.000D-09 after    15 iterations.
 End of Minotr F.D. properties file   721 does not exist.
 End of Minotr F.D. properties file   722 does not exist.
 End of Minotr F.D. properties file   788 does not exist.
 Leave Link 1002 at Mon Feb 14 22:10:05 2022, MaxMem= 16106127360 cpu:              60.4 elap:               4.8
 (Enter /sw/contrib/gaussian/g16/B01/g16/l601.exe)
 Copying SCF densities to generalized density rwf, IOpCl= 0 IROHF=0.

 **********************************************************************

            Population analysis using the MP2 Density.

 **********************************************************************

 Orbital symmetries:
       Occupied  (A') (A') (A') (A') (A') (A') (A') (A') (A') (A')
                 (A") (A') (A") (A') (A") (A')
       Virtual   (A') (A") (A') (A') (A') (A") (A') (A') (A") (A')
                 (A") (A') (A') (A') (A") (A') (A') (A") (A') (A')
                 (A') (A') (A') (A') (A") (A') (A') (A") (A') (A')
                 (A") (A') (A") (A') (A') (A") (A') (A") (A') (A')
                 (A") (A') (A") (A') (A') (A") (A') (A') (A") (A')
                 (A") (A') (A') (A') (A") (A') (A") (A') (A") (A')
                 (A') (A') (A") (A') (A') (A") (A') (A") (A') (A')
                 (A") (A') (A') (A") (A") (A') (A') (A") (A') (A')
                 (A') (A") (A') (A") (A") (A') (A') (A") (A') (A')
                 (A") (A') (A') (A") (A') (A") (A') (A") (A') (A')
                 (A") (A') (A") (A') (A') (A") (A') (A') (A") (A')
                 (A") (A') (A') (A') (A") (A') (A') (A') (A') (A")
                 (A") (A') (A") (A') (A') (A") (A") (A') (A") (A')
                 (A') (A') (A') (A") (A") (A") (A') (A') (A') (A')
                 (A") (A") (A') (A') (A') (A") (A') (A') (A') (A')
                 (A") (A') (A') (A") (A') (A") (A') (A") (A') (A")
                 (A') (A") (A') (A') (A") (A") (A") (A') (A") (A')
                 (A") (A') (A") (A') (A") (A') (A") (A") (A') (A')
                 (A') (A') (A') (A') (A') (A') (A') (A') (A') (A')
                 (A')
 The electronic state is 1-A'.
 Alpha  occ. eigenvalues --  -20.69049 -20.68401 -20.66112 -15.81253  -1.62369
 Alpha  occ. eigenvalues --   -1.49395  -1.25153  -0.94772  -0.77162  -0.75795
 Alpha  occ. eigenvalues --   -0.71144  -0.67704  -0.62002  -0.58871  -0.48472
 Alpha  occ. eigenvalues --   -0.47209
 Alpha virt. eigenvalues --    0.02934   0.07190   0.08601   0.10176   0.13396
 Alpha virt. eigenvalues --    0.13407   0.14341   0.15399   0.17846   0.19421
 Alpha virt. eigenvalues --    0.19986   0.20636   0.22087   0.23583   0.23752
 Alpha virt. eigenvalues --    0.26566   0.29313   0.30323   0.30990   0.34356
 Alpha virt. eigenvalues --    0.35055   0.38696   0.41989   0.42998   0.52745
 Alpha virt. eigenvalues --    0.52944   0.55856   0.58188   0.62613   0.63832
 Alpha virt. eigenvalues --    0.67466   0.68306   0.70645   0.71050   0.72295
 Alpha virt. eigenvalues --    0.72943   0.74439   0.79188   0.79195   0.81011
 Alpha virt. eigenvalues --    0.81290   0.83039   0.86845   0.90828   0.92154
 Alpha virt. eigenvalues --    0.92608   0.95530   0.97922   0.98257   1.01383
 Alpha virt. eigenvalues --    1.05266   1.05484   1.08101   1.11543   1.13942
 Alpha virt. eigenvalues --    1.18997   1.21983   1.22978   1.33928   1.35132
 Alpha virt. eigenvalues --    1.38644   1.44938   1.48357   1.50653   1.53846
 Alpha virt. eigenvalues --    1.56687   1.58067   1.61168   1.66523   1.67080
 Alpha virt. eigenvalues --    1.70317   1.79246   1.83087   1.83507   1.87879
 Alpha virt. eigenvalues --    1.90803   1.94781   1.99164   2.00344   2.07759
 Alpha virt. eigenvalues --    2.11909   2.13220   2.15040   2.22363   2.26366
 Alpha virt. eigenvalues --    2.26617   2.28956   2.31293   2.34295   2.38362
 Alpha virt. eigenvalues --    2.42438   2.42754   2.45426   2.46256   2.47597
 Alpha virt. eigenvalues --    2.50030   2.59442   2.59601   2.62147   2.62332
 Alpha virt. eigenvalues --    2.63507   2.67052   2.75733   2.83028   2.85519
 Alpha virt. eigenvalues --    2.88351   2.89474   2.92271   2.95818   3.02244
 Alpha virt. eigenvalues --    3.06721   3.12411   3.20499   3.22556   3.31467
 Alpha virt. eigenvalues --    3.34023   3.51766   3.63688   3.82843   3.83825
 Alpha virt. eigenvalues --    4.13548   4.15772   4.18071   4.25617   4.33885
 Alpha virt. eigenvalues --    4.38980   4.45885   4.51341   4.66038   4.70455
 Alpha virt. eigenvalues --    4.79656   4.80790   4.82594   4.89551   5.02333
 Alpha virt. eigenvalues --    5.07743   5.08714   5.13261   5.17142   5.22581
 Alpha virt. eigenvalues --    5.25931   5.30147   5.30592   5.35218   5.59894
 Alpha virt. eigenvalues --    5.67371   5.76553   5.82165   5.95590   6.17205
 Alpha virt. eigenvalues --    6.30843   6.34114   6.39113   6.49365   6.50541
 Alpha virt. eigenvalues --    6.61147   6.66946   6.69926   6.75845   6.76381
 Alpha virt. eigenvalues --    6.83230   6.89842   7.00356   7.05439   7.05515
 Alpha virt. eigenvalues --    7.08772   7.12035   7.14654   7.17817   7.22134
 Alpha virt. eigenvalues --    7.22193   7.29283   7.32519   7.34433   7.40003
 Alpha virt. eigenvalues --    7.42874   7.48460   7.60687   7.61536   7.62421
 Alpha virt. eigenvalues --    7.66180   7.77488   7.88683   8.08563   8.30883
 Alpha virt. eigenvalues --    8.39110   8.53958  13.38667  14.37107  14.95925
 Alpha virt. eigenvalues --   16.15265
          Condensed to atoms (all electrons):
               1          2          3          4          5
     1  H    0.574131   0.134116   0.018324   0.012022  -0.000605
     2  O    0.134116   8.324930  -0.171736  -0.089295   0.015355
     3  O    0.018324  -0.171736   8.468213  -0.129717  -0.038936
     4  N    0.012022  -0.089295  -0.129717   6.972003  -0.055749
     5  O   -0.000605   0.015355  -0.038936  -0.055749   8.273164
 Mulliken charges:
               1
     1  H    0.262011
     2  O   -0.213370
     3  O   -0.146148
     4  N    0.290736
     5  O   -0.193229
 Sum of Mulliken charges =  -0.00000
 Mulliken charges with hydrogens summed into heavy atoms:
               1
     2  O    0.048641
     3  O   -0.146148
     4  N    0.290736
     5  O   -0.193229
 Electronic spatial extent (au):  <R**2>=            253.0673
 Charge=             -0.0000 electrons
 Dipole moment (field-independent basis, Debye):
    X=              0.5161    Y=              1.3798    Z=             -0.0000  Tot=              1.4732
 Quadrupole moment (field-independent basis, Debye-Ang):
   XX=            -22.4757   YY=            -18.5572   ZZ=            -22.0291
   XY=              3.2855   XZ=             -0.0000   YZ=              0.0000
 Traceless Quadrupole moment (field-independent basis, Debye-Ang):
   XX=             -1.4550   YY=              2.4635   ZZ=             -1.0084
   XY=              3.2855   XZ=             -0.0000   YZ=              0.0000
 Octapole moment (field-independent basis, Debye-Ang**2):
  XXX=              2.8323  YYY=             11.4770  ZZZ=             -0.0000  XYY=              8.0171
  XXY=              6.6178  XXZ=             -0.0000  XZZ=             -1.6036  YZZ=             -0.8746
  YYZ=             -0.0000  XYZ=             -0.0000
 Hexadecapole moment (field-independent basis, Debye-Ang**3):
 XXXX=           -158.6569 YYYY=            -89.5232 ZZZZ=            -18.2730 XXXY=            -36.7267
 XXXZ=             -0.0000 YYYX=            -30.5053 YYYZ=              0.0000 ZZZX=             -0.0000
 ZZZY=              0.0000 XXYY=            -33.8605 XXZZ=            -30.9272 YYZZ=            -20.7366
 XXYZ=              0.0000 YYXZ=              0.0000 ZZXY=            -15.1081
 N-N= 1.167858913324D+02 E-N=-8.956786629518D+02  KE= 2.801723974832D+02
 Symmetry A'   KE= 2.662020243542D+02
 Symmetry A"   KE= 1.397037312903D+01
 No NMR shielding tensors so no spin-rotation constants.
 Leave Link  601 at Mon Feb 14 22:10:05 2022, MaxMem= 16106127360 cpu:               5.9 elap:               0.3
 (Enter /sw/contrib/gaussian/g16/B01/g16/l9999.exe)
 1\1\GINC-N2179\SP\RMP2-FC\Aug-CC-pVTZ\H1N1O3\CGAVINH\14-Feb-2022\0\\#p
  SP mp2/aug-cc-pvtz density=current\\title\\0,1\H\O,1,0.9839462483\O,2
 ,1.45491931,1,97.59494903\N,3,1.45878406,2,102.29752444,1,180.,0\O,4,1
 .17072885,3,109.06955123,2,180.,0\\Version=ES64L-G16RevB.01\State=1-A'
 \HF=-279.5007724\MP2=-280.4465365\RMSD=3.793e-09\Dipole=-0.1487711,0.,
 -0.5601649\Quadrupole=-1.5309463,-0.7497389,2.2806852,0.,2.1110113,0.\
 PG=CS [SG(H1N1O3)]\\@


 NOTHING RESEMBLES A NEW PHENOMENON AS MUCH AS A MISTAKE.

                               -- ENRICO FERMI (?)
 Job cpu time:       0 days  0 hours  6 minutes 53.9 seconds.
 Elapsed time:       0 days  0 hours  0 minutes 19.8 seconds.
 File lengths (MBytes):  RWF=     22 Int=      0 D2E=      0 Chk=      8 Scr=      1
 Normal termination of Gaussian 16 at Mon Feb 14 22:10:05 2022.
