title                                                                   
SP        RMP2-FC                                                     Aug-CC-pVTZ         
Number of atoms                            I                5
Info1-9                                    I   N=           9
          33          24           0           0           0         110
           1           2           1
Full Title                                 C   N=           1
title       
Route                                      C   N=           4
#p SP mp2/aug-cc-pvtz density=current           
Charge                                     I                0
Multiplicity                               I                1
Number of electrons                        I               32
Number of alpha electrons                  I               16
Number of beta electrons                   I               16
Number of basis functions                  I              207
Number of independent functions            I              207
Number of point charges in /Mol/           I                0
Number of translation vectors              I                0
Atomic numbers                             I   N=           5
           1           8           8           7           8
Nuclear charges                            R   N=           5
  1.00000000E+00  8.00000000E+00  8.00000000E+00  7.00000000E+00  8.00000000E+00
Current cartesian coordinates              R   N=          15
  2.84618257E+00  3.27745765E+00  1.75693722E-31  2.74158657E+00  1.44934903E+00
  8.06572432E-32  5.75108300E-17  1.24223041E+00  4.15772716E-32 -4.86240581E-01
 -1.47125037E+00 -2.44985872E-32 -2.67189888E+00 -1.81391758E+00 -1.53953597E-32
Number of symbols in /Mol/                 I                0
Force Field                                I                0
Atom Types                                 C   N=           5
                                                            
Int Atom Types                             I   N=           5
           0           0           0           0           0
MM charges                                 R   N=           5
  0.00000000E+00  0.00000000E+00  0.00000000E+00  0.00000000E+00  0.00000000E+00
Integer atomic weights                     I   N=           5
           1          16          16          14          16
Real atomic weights                        R   N=           5
  1.00782504E+00  1.59949146E+01  1.59949146E+01  1.40030740E+01  1.59949146E+01
Atom fragment info                         I   N=           5
           0           0           0           0           0
Atom residue num                           I   N=           5
           0           0           0           0           0
Nuclear spins                              I   N=           5
           1           0           0           2           0
Nuclear ZEff                               R   N=           5
 -1.00000000E+00 -5.60000000E+00 -5.60000000E+00 -4.55000000E+00 -5.60000000E+00
Nuclear ZNuc                               R   N=           5
  1.00000000E+00  8.00000000E+00  8.00000000E+00  7.00000000E+00  8.00000000E+00
Nuclear QMom                               R   N=           5
  0.00000000E+00  0.00000000E+00  0.00000000E+00  2.04400000E+00  0.00000000E+00
Nuclear GFac                               R   N=           5
  2.79284600E+00  0.00000000E+00  0.00000000E+00  4.03761000E-01  0.00000000E+00
MicOpt                                     I   N=           5
          -1          -1          -1          -1          -1
Number of residues                         I                0
Number of secondary structures             I                0
SymInf integers                            I   N=          26
           1           2           1           1           1           1
           1          -1           0           0           0           0
           0           0           0           0           0           0
           0           0           0           0           0           0
           0           0
RotTr to input orientation                 R   N=          12
 -9.98367206E-01 -9.71856586E-17 -5.71220002E-02  5.71220002E-02 -7.45154050E-17
 -9.98367206E-01  9.27705054E-17 -1.00000000E+00  7.99451759E-17  2.65432040E+00
  0.00000000E+00  3.43468588E+00
Number of contracted shells                I               65
Number of primitive shells                 I              119
Pure/Cartesian d shells                    I                0
Pure/Cartesian f shells                    I                0
Highest angular momentum                   I                3
Largest degree of contraction              I                7
Shell types                                I   N=          65
           0           0           0           0           1           1
           1          -2          -2           0           0           0
           0           0           1           1           1           1
          -2          -2          -2          -3          -3           0
           0           0           0           0           1           1
           1           1          -2          -2          -2          -3
          -3           0           0           0           0           0
           1           1           1           1          -2          -2
          -2          -3          -3           0           0           0
           0           0           1           1           1           1
          -2          -2          -2          -3          -3
Number of primitives per shell             I   N=          65
           3           1           1           1           1           1
           1           1           1           7           6           1
           1           1           3           1           1           1
           1           1           1           1           1           7
           6           1           1           1           3           1
           1           1           1           1           1           1
           1           7           6           1           1           1
           3           1           1           1           1           1
           1           1           1           7           6           1
           1           1           3           1           1           1
           1           1           1           1           1
Shell to atom map                          I   N=          65
           1           1           1           1           1           1
           1           1           1           2           2           2
           2           2           2           2           2           2
           2           2           2           2           2           3
           3           3           3           3           3           3
           3           3           3           3           3           3
           3           4           4           4           4           4
           4           4           4           4           4           4
           4           4           4           5           5           5
           5           5           5           5           5           5
           5           5           5           5           5
Primitive exponents                        R   N=         119
  3.38700000E+01  5.09500000E+00  1.15900000E+00  3.25800000E-01  1.02700000E-01
  2.52600000E-02  1.40700000E+00  3.88000000E-01  1.02000000E-01  1.05700000E+00
  2.47000000E-01  1.53300000E+04  2.29900000E+03  5.22400000E+02  1.47300000E+02
  4.75500000E+01  1.67600000E+01  6.20700000E+00  5.22400000E+02  1.47300000E+02
  4.75500000E+01  1.67600000E+01  6.20700000E+00  6.88200000E-01  1.75200000E+00
  2.38400000E-01  7.37600000E-02  3.44600000E+01  7.74900000E+00  2.28000000E+00
  7.15600000E-01  2.14000000E-01  5.97400000E-02  2.31400000E+00  6.45000000E-01
  2.14000000E-01  1.42800000E+00  5.00000000E-01  1.53300000E+04  2.29900000E+03
  5.22400000E+02  1.47300000E+02  4.75500000E+01  1.67600000E+01  6.20700000E+00
  5.22400000E+02  1.47300000E+02  4.75500000E+01  1.67600000E+01  6.20700000E+00
  6.88200000E-01  1.75200000E+00  2.38400000E-01  7.37600000E-02  3.44600000E+01
  7.74900000E+00  2.28000000E+00  7.15600000E-01  2.14000000E-01  5.97400000E-02
  2.31400000E+00  6.45000000E-01  2.14000000E-01  1.42800000E+00  5.00000000E-01
  1.14200000E+04  1.71200000E+03  3.89300000E+02  1.10000000E+02  3.55700000E+01
  1.25400000E+01  4.64400000E+00  3.89300000E+02  1.10000000E+02  3.55700000E+01
  1.25400000E+01  4.64400000E+00  5.11800000E-01  1.29300000E+00  1.78700000E-01
  5.76000000E-02  2.66300000E+01  5.94800000E+00  1.74200000E+00  5.55000000E-01
  1.72500000E-01  4.91000000E-02  1.65400000E+00  4.69000000E-01  1.51000000E-01
  1.09300000E+00  3.64000000E-01  1.53300000E+04  2.29900000E+03  5.22400000E+02
  1.47300000E+02  4.75500000E+01  1.67600000E+01  6.20700000E+00  5.22400000E+02
  1.47300000E+02  4.75500000E+01  1.67600000E+01  6.20700000E+00  6.88200000E-01
  1.75200000E+00  2.38400000E-01  7.37600000E-02  3.44600000E+01  7.74900000E+00
  2.28000000E+00  7.15600000E-01  2.14000000E-01  5.97400000E-02  2.31400000E+00
  6.45000000E-01  2.14000000E-01  1.42800000E+00  5.00000000E-01
Contraction coefficients                   R   N=         119
  2.54948632E-02  1.90362766E-01  8.52162022E-01  1.00000000E+00  1.00000000E+00
  1.00000000E+00  1.00000000E+00  1.00000000E+00  1.00000000E+00  1.00000000E+00
  1.00000000E+00  5.19808943E-04  4.02025621E-03  2.07128267E-02  8.10105536E-02
  2.35962985E-01  4.42653446E-01  3.57064423E-01 -4.42115008E-05 -1.22591041E-03
 -1.05517725E-02 -6.74452633E-02 -1.71198607E-01  1.07329856E+00  1.00000000E+00
  1.00000000E+00  1.00000000E+00  4.11634896E-02  2.57762836E-01  8.02419274E-01
  1.00000000E+00  1.00000000E+00  1.00000000E+00  1.00000000E+00  1.00000000E+00
  1.00000000E+00  1.00000000E+00  1.00000000E+00  5.19808943E-04  4.02025621E-03
  2.07128267E-02  8.10105536E-02  2.35962985E-01  4.42653446E-01  3.57064423E-01
 -4.42115008E-05 -1.22591041E-03 -1.05517725E-02 -6.74452633E-02 -1.71198607E-01
  1.07329856E+00  1.00000000E+00  1.00000000E+00  1.00000000E+00  4.11634896E-02
  2.57762836E-01  8.02419274E-01  1.00000000E+00  1.00000000E+00  1.00000000E+00
  1.00000000E+00  1.00000000E+00  1.00000000E+00  1.00000000E+00  1.00000000E+00
  5.34563860E-04  4.13435660E-03  2.12335358E-02  8.25006224E-02  2.38138871E-01
  4.42551547E-01  3.53757422E-01 -4.89867350E-05 -1.19527323E-03 -1.03490714E-02
 -6.48680190E-02 -1.71552477E-01  1.07289568E+00  1.00000000E+00  1.00000000E+00
  1.00000000E+00  3.98072123E-02  2.49002660E-01  8.10479727E-01  1.00000000E+00
  1.00000000E+00  1.00000000E+00  1.00000000E+00  1.00000000E+00  1.00000000E+00
  1.00000000E+00  1.00000000E+00  5.19808943E-04  4.02025621E-03  2.07128267E-02
  8.10105536E-02  2.35962985E-01  4.42653446E-01  3.57064423E-01 -4.42115008E-05
 -1.22591041E-03 -1.05517725E-02 -6.74452633E-02 -1.71198607E-01  1.07329856E+00
  1.00000000E+00  1.00000000E+00  1.00000000E+00  4.11634896E-02  2.57762836E-01
  8.02419274E-01  1.00000000E+00  1.00000000E+00  1.00000000E+00  1.00000000E+00
  1.00000000E+00  1.00000000E+00  1.00000000E+00  1.00000000E+00
Coordinates of each shell                  R   N=         195
  2.84618257E+00  3.27745765E+00  6.35036581E-32  2.84618257E+00  3.27745765E+00
  6.35036581E-32  2.84618257E+00  3.27745765E+00  6.35036581E-32  2.84618257E+00
  3.27745765E+00  6.35036581E-32  2.84618257E+00  3.27745765E+00  6.35036581E-32
  2.84618257E+00  3.27745765E+00  6.35036581E-32  2.84618257E+00  3.27745765E+00
  6.35036581E-32  2.84618257E+00  3.27745765E+00  6.35036581E-32  2.84618257E+00
  3.27745765E+00  6.35036581E-32  2.74158657E+00  1.44934903E+00  2.96486120E-32
  2.74158657E+00  1.44934903E+00  2.96486120E-32  2.74158657E+00  1.44934903E+00
  2.96486120E-32  2.74158657E+00  1.44934903E+00  2.96486120E-32  2.74158657E+00
  1.44934903E+00  2.96486120E-32  2.74158657E+00  1.44934903E+00  2.96486120E-32
  2.74158657E+00  1.44934903E+00  2.96486120E-32  2.74158657E+00  1.44934903E+00
  2.96486120E-32  2.74158657E+00  1.44934903E+00  2.96486120E-32  2.74158657E+00
  1.44934903E+00  2.96486120E-32  2.74158657E+00  1.44934903E+00  2.96486120E-32
  2.74158657E+00  1.44934903E+00  2.96486120E-32  2.74158657E+00  1.44934903E+00
  2.96486120E-32  2.74158657E+00  1.44934903E+00  2.96486120E-32 -4.83689577E-18
  1.24223041E+00  2.29300068E-32 -4.83689577E-18  1.24223041E+00  2.29300068E-32
 -4.83689577E-18  1.24223041E+00  2.29300068E-32 -4.83689577E-18  1.24223041E+00
  2.29300068E-32 -4.83689577E-18  1.24223041E+00  2.29300068E-32 -4.83689577E-18
  1.24223041E+00  2.29300068E-32 -4.83689577E-18  1.24223041E+00  2.29300068E-32
 -4.83689577E-18  1.24223041E+00  2.29300068E-32 -4.83689577E-18  1.24223041E+00
  2.29300068E-32 -4.83689577E-18  1.24223041E+00  2.29300068E-32 -4.83689577E-18
  1.24223041E+00  2.29300068E-32 -4.83689577E-18  1.24223041E+00  2.29300068E-32
 -4.83689577E-18  1.24223041E+00  2.29300068E-32 -4.83689577E-18  1.24223041E+00
  2.29300068E-32 -4.86240581E-01 -1.47125037E+00 -2.76709569E-32 -4.86240581E-01
 -1.47125037E+00 -2.76709569E-32 -4.86240581E-01 -1.47125037E+00 -2.76709569E-32
 -4.86240581E-01 -1.47125037E+00 -2.76709569E-32 -4.86240581E-01 -1.47125037E+00
 -2.76709569E-32 -4.86240581E-01 -1.47125037E+00 -2.76709569E-32 -4.86240581E-01
 -1.47125037E+00 -2.76709569E-32 -4.86240581E-01 -1.47125037E+00 -2.76709569E-32
 -4.86240581E-01 -1.47125037E+00 -2.76709569E-32 -4.86240581E-01 -1.47125037E+00
 -2.76709569E-32 -4.86240581E-01 -1.47125037E+00 -2.76709569E-32 -4.86240581E-01
 -1.47125037E+00 -2.76709569E-32 -4.86240581E-01 -1.47125037E+00 -2.76709569E-32
 -4.86240581E-01 -1.47125037E+00 -2.76709569E-32 -2.67189888E+00 -1.81391758E+00
 -3.63044888E-32 -2.67189888E+00 -1.81391758E+00 -3.63044888E-32 -2.67189888E+00
 -1.81391758E+00 -3.63044888E-32 -2.67189888E+00 -1.81391758E+00 -3.63044888E-32
 -2.67189888E+00 -1.81391758E+00 -3.63044888E-32 -2.67189888E+00 -1.81391758E+00
 -3.63044888E-32 -2.67189888E+00 -1.81391758E+00 -3.63044888E-32 -2.67189888E+00
 -1.81391758E+00 -3.63044888E-32 -2.67189888E+00 -1.81391758E+00 -3.63044888E-32
 -2.67189888E+00 -1.81391758E+00 -3.63044888E-32 -2.67189888E+00 -1.81391758E+00
 -3.63044888E-32 -2.67189888E+00 -1.81391758E+00 -3.63044888E-32 -2.67189888E+00
 -1.81391758E+00 -3.63044888E-32 -2.67189888E+00 -1.81391758E+00 -3.63044888E-32
Num ILSW                                   I              100
ILSW                                       I   N=         100
           0           0           0           0           2           0
           0           0           0           0           0          -1
           5           0           0           0           0           0
           0           0           0           0           0           0
           1           0           0           0           0           0
           0           0      100000           0          -1           0
           0           0           0           0           0           0
           0           0           0           1           0           0
           0 -2000000000           1           0           0           0
           0           0           4          52           0           0
           0           0           0           0           0           0
           0           0           0           5           0           1
           0           0           0           0           0           0
           0           0           0           0           0           0
           0           0           0           0           0           0
           0           0           0           0           0           0
           0           0           0           0
Num RLSW                                   I               52
RLSW                                       R   N=          52
  1.00000000E+00  1.00000000E+00  1.00000000E+00  1.00000000E+00  1.00000000E+00
  0.00000000E+00  0.00000000E+00  1.00000000E+00  0.00000000E+00  0.00000000E+00
  0.00000000E+00  0.00000000E+00  1.00000000E+00  0.00000000E+00  0.00000000E+00
  0.00000000E+00  0.00000000E+00  1.00000000E+00  0.00000000E+00  0.00000000E+00
  0.00000000E+00  0.00000000E+00  1.00000000E+00  0.00000000E+00  0.00000000E+00
  0.00000000E+00  0.00000000E+00  1.00000000E+00  0.00000000E+00  0.00000000E+00
  0.00000000E+00  0.00000000E+00  1.00000000E+00  0.00000000E+00  0.00000000E+00
  0.00000000E+00  0.00000000E+00  0.00000000E+00  1.00000000E+00  1.00000000E+00
  0.00000000E+00  1.00000000E+00  0.00000000E+00  0.00000000E+00  0.00000000E+00
  0.00000000E+00  0.00000000E+00  0.00000000E+00  0.00000000E+00  0.00000000E+00
  0.00000000E+00  0.00000000E+00
MxBond                                     I                2
NBond                                      I   N=           5
           1           2           2           2           1
IBond                                      I   N=          10
           2           0           1           3           2           4
           3           5           4           0
RBond                                      R   N=          10
  1.00000000E+00  0.00000000E+00  1.00000000E+00  1.00000000E+00  1.00000000E+00
  1.00000000E+00  1.00000000E+00  2.00000000E+00  2.00000000E+00  0.00000000E+00
Virial Ratio                               R      2.002396143446558E+00
SCF Energy                                 R     -2.795016241691027E+02
MP2 Energy                                 R     -2.804465345005870E+02
Total Energy                               R     -2.804465345005870E+02
Post-SCF wavefunction norm                 R      1.120237260027773E+00
RMS Density                                R      3.814063187800383E-09
Job Status                                 I                1
Nuclear derivative order                   I                0
External E-field                           R   N=          35
  0.00000000E+00  0.00000000E+00  0.00000000E+00  0.00000000E+00  0.00000000E+00
  0.00000000E+00  0.00000000E+00  0.00000000E+00  0.00000000E+00  0.00000000E+00
  0.00000000E+00  0.00000000E+00  0.00000000E+00  0.00000000E+00  0.00000000E+00
  0.00000000E+00  0.00000000E+00  0.00000000E+00  0.00000000E+00  0.00000000E+00
  0.00000000E+00  0.00000000E+00  0.00000000E+00  0.00000000E+00  0.00000000E+00
  0.00000000E+00  0.00000000E+00  0.00000000E+00  0.00000000E+00  0.00000000E+00
  0.00000000E+00  0.00000000E+00  0.00000000E+00  0.00000000E+00  0.00000000E+00
IOpCl                                      I                0
IROHF                                      I                0
Alpha Orbital Energies                     R   N=         207
 -2.06901995E+01 -2.06847928E+01 -2.06607106E+01 -1.58135107E+01 -1.62396517E+00
 -1.49511687E+00 -1.25541431E+00 -9.47670970E-01 -7.71154453E-01 -7.60035831E-01
 -7.11471786E-01 -6.82550960E-01 -6.21020982E-01 -5.87771886E-01 -4.85024722E-01
 -4.72057590E-01  2.96347754E-02  7.14179703E-02  8.59848633E-02  1.02302400E-01
  1.33696009E-01  1.33717514E-01  1.43795970E-01  1.53769041E-01  1.78343118E-01
  1.94375989E-01  2.00040377E-01  2.05947802E-01  2.20608248E-01  2.35094336E-01
  2.37200985E-01  2.67695569E-01  2.93733548E-01  3.02714845E-01  3.11076080E-01
  3.43999539E-01  3.49018152E-01  3.86265298E-01  4.22578427E-01  4.33367012E-01
  5.27310223E-01  5.27646585E-01  5.56075570E-01  5.78351991E-01  6.25364301E-01
  6.39942457E-01  6.74966278E-01  6.84611269E-01  7.07629273E-01  7.09770987E-01
  7.24839129E-01  7.28236004E-01  7.44628757E-01  7.92152106E-01  7.93906291E-01
  8.11616318E-01  8.12611651E-01  8.28480383E-01  8.68198648E-01  9.08431957E-01
  9.21754256E-01  9.26932242E-01  9.53072148E-01  9.70136315E-01  9.82797521E-01
  1.01633627E+00  1.05025151E+00  1.05644206E+00  1.07640183E+00  1.11237416E+00
  1.13768755E+00  1.19221347E+00  1.21868418E+00  1.23562182E+00  1.34080405E+00
  1.35197568E+00  1.38349704E+00  1.45543888E+00  1.48837998E+00  1.50856249E+00
  1.53550295E+00  1.56476375E+00  1.57815712E+00  1.61049595E+00  1.65878721E+00
  1.67384102E+00  1.70328686E+00  1.79065815E+00  1.83767121E+00  1.83772716E+00
  1.87662206E+00  1.90629853E+00  1.95256615E+00  1.99052932E+00  2.00609261E+00
  2.07893571E+00  2.12610943E+00  2.13343204E+00  2.14938593E+00  2.22244241E+00
  2.26379839E+00  2.26563835E+00  2.29156098E+00  2.31134779E+00  2.33231148E+00
  2.38352128E+00  2.42041621E+00  2.42983910E+00  2.45577228E+00  2.46018186E+00
  2.47657507E+00  2.49542197E+00  2.58685184E+00  2.59839189E+00  2.61808816E+00
  2.62944467E+00  2.64008891E+00  2.66378958E+00  2.75235083E+00  2.81520885E+00
  2.83341108E+00  2.87088461E+00  2.89602388E+00  2.92835868E+00  2.96397301E+00
  3.01140598E+00  3.06281674E+00  3.11643564E+00  3.20213122E+00  3.22203972E+00
  3.31904855E+00  3.35235844E+00  3.53233586E+00  3.63096015E+00  3.83599930E+00
  3.84283909E+00  4.14609822E+00  4.16395082E+00  4.18146760E+00  4.25351206E+00
  4.35754934E+00  4.38861616E+00  4.46284718E+00  4.52136573E+00  4.64895748E+00
  4.70891014E+00  4.79731736E+00  4.82345047E+00  4.83254642E+00  4.89406680E+00
  5.02569766E+00  5.07779564E+00  5.10387313E+00  5.15427561E+00  5.17101906E+00
  5.23735223E+00  5.27387497E+00  5.30774603E+00  5.32391208E+00  5.34524450E+00
  5.58754543E+00  5.67326354E+00  5.76224874E+00  5.83292959E+00  5.95762781E+00
  6.16149868E+00  6.30908165E+00  6.34050303E+00  6.39679745E+00  6.49452124E+00
  6.50735246E+00  6.60954234E+00  6.67190865E+00  6.70178982E+00  6.75035449E+00
  6.76305708E+00  6.83104829E+00  6.90141931E+00  7.01893468E+00  7.05538374E+00
  7.06288542E+00  7.08963441E+00  7.12232710E+00  7.14538972E+00  7.18041029E+00
  7.22730965E+00  7.23894275E+00  7.30612301E+00  7.32588264E+00  7.33384500E+00
  7.39400078E+00  7.43504254E+00  7.48076320E+00  7.61315721E+00  7.61511675E+00
  7.61942549E+00  7.65958804E+00  7.78586269E+00  7.87669505E+00  8.09627168E+00
  8.31374822E+00  8.40970879E+00  8.54642413E+00  1.33711574E+01  1.44355496E+01
  1.51392607E+01  1.61493523E+01
Alpha MO coefficients                      R   N=       42849
  9.31153795E-05 -6.73512613E-04 -7.47408919E-04 -7.03872978E-06 -2.31137311E-05
 -2.75007075E-05  0.00000000E+00 -3.95867597E-05  7.08704799E-05  0.00000000E+00
  9.38522166E-05  4.42262947E-05  0.00000000E+00  3.27184383E-05  0.00000000E+00
  0.00000000E+00 -5.09395046E-05  1.69256255E-05 -3.70405083E-06  0.00000000E+00
  0.00000000E+00 -1.52405182E-04  1.06782038E-04  4.79777603E-03 -2.80394199E-04
  2.06474724E-05  1.65414116E-03  1.84830810E-03  1.07933122E-04  1.20116720E-05
  0.00000000E+00 -6.30276425E-04 -6.16733363E-05  0.00000000E+00 -1.17808649E-03
  7.71462350E-04  0.00000000E+00 -4.11859676E-04  4.78766683E-05  0.00000000E+00
  2.87880121E-05  0.00000000E+00  0.00000000E+00 -5.46607536E-05  1.27997668E-06
 -3.82976469E-04  0.00000000E+00  0.00000000E+00  7.45590163E-04  3.18388883E-05
 -4.51490756E-04  0.00000000E+00  0.00000000E+00  2.57736868E-04  2.38682905E-06
  0.00000000E+00  8.04178272E-05  1.63084087E-05  0.00000000E+00  0.00000000E+00
 -1.07614138E-04 -1.62649098E-05  0.00000000E+00  2.53620587E-04 -1.97179039E-05
  0.00000000E+00  0.00000000E+00 -3.65308717E-04  3.97202973E-06  9.76907944E-01
 -9.20139291E-03  4.33256878E-02  1.94637521E-03 -9.26581175E-04  1.52544796E-03
 -1.31888239E-03  0.00000000E+00 -1.45549524E-03  1.33605306E-03  0.00000000E+00
  5.27367675E-05 -1.16215698E-03  0.00000000E+00 -1.45599460E-04 -1.56112295E-05
  0.00000000E+00  4.29016624E-05  0.00000000E+00  0.00000000E+00 -3.50447210E-05
  2.53876943E-05  7.56157292E-04  0.00000000E+00  0.00000000E+00 -2.20584774E-04
 -4.46490061E-04 -3.58069431E-04  0.00000000E+00  0.00000000E+00 -3.04807601E-04
 -3.69850457E-04  0.00000000E+00  4.73442666E-05 -4.70177695E-05  0.00000000E+00
  0.00000000E+00 -3.81955489E-05 -1.94881926E-05  0.00000000E+00  2.58818941E-05
  2.29054628E-05  0.00000000E+00  0.00000000E+00 -3.05769738E-04 -1.70055956E-04
  4.05690456E-05  5.31748433E-05 -2.68549494E-04 -6.56861764E-04 -1.35919471E-04
 -2.75472223E-05 -9.91134026E-05  0.00000000E+00  2.85216927E-04  7.33178090E-04
  0.00000000E+00 -8.66458782E-04 -4.77724848E-04  0.00000000E+00 -1.18581827E-04
 -2.50250954E-05  0.00000000E+00 -1.88151187E-05  0.00000000E+00  0.00000000E+00
 -3.15035299E-05  1.48441802E-05 -3.31506056E-04  0.00000000E+00  0.00000000E+00
 -8.34470484E-04  1.29419987E-04 -3.62372351E-05  0.00000000E+00  0.00000000E+00
  1.02565363E-04 -1.22463758E-04  0.00000000E+00 -2.13668063E-05 -1.20806083E-04
  0.00000000E+00  0.00000000E+00 -5.92294356E-05 -1.37900148E-04  0.00000000E+00
  1.12061457E-05 -1.45608639E-04  0.00000000E+00  0.00000000E+00  4.46719362E-05
 -4.30977639E-04 -3.08737534E-03  1.26133496E-04 -1.48021998E-04 -2.77187386E-04
  1.25414414E-04 -9.00826372E-06 -2.94581301E-05  0.00000000E+00  6.97888063E-05
  1.74195560E-04  0.00000000E+00  2.30969364E-04  1.86608717E-04  0.00000000E+00
  1.24444109E-04  1.61968456E-05  0.00000000E+00 -3.55916529E-06  0.00000000E+00
  0.00000000E+00 -1.81099537E-05  1.11506781E-06  3.24325679E-09  0.00000000E+00
  0.00000000E+00  8.24131883E-05  9.20893448E-05 -1.00584549E-04  0.00000000E+00
  0.00000000E+00  1.75578369E-04  1.56096413E-04  0.00000000E+00  1.56352814E-05
 -3.82457093E-06  0.00000000E+00  0.00000000E+00 -4.74595834E-06 -1.16077213E-05
  0.00000000E+00 -3.40377536E-05  4.62250909E-05  0.00000000E+00  0.00000000E+00
  8.80475787E-05  9.08708290E-05  3.48968308E-05 -9.73709278E-04 -5.07760683E-04
 -8.95013550E-06 -2.25819756E-05  1.67918418E-05  0.00000000E+00 -7.81511561E-06
  2.78290441E-04  0.00000000E+00 -3.41575108E-05  1.40917048E-04  0.00000000E+00
  2.48678315E-05  0.00000000E+00  0.00000000E+00  1.38162565E-05  1.26403922E-05
 -2.09833422E-05  0.00000000E+00  0.00000000E+00  6.04591653E-06  2.96645270E-05
  1.13957412E-04  6.82020674E-05 -2.71926242E-05  7.92268375E-04  7.32466317E-04
  9.87902247E-06  2.79501976E-06  0.00000000E+00 -6.54473166E-05  1.94413656E-05
  0.00000000E+00  2.51662497E-04  8.36891744E-04  0.00000000E+00 -2.26210343E-05
  6.90637444E-05  0.00000000E+00 -1.35699140E-06  0.00000000E+00  0.00000000E+00
  3.43891660E-07 -8.60646687E-06 -3.92990839E-05  0.00000000E+00  0.00000000E+00
 -3.12701584E-05  9.43900655E-05 -3.04901205E-05  0.00000000E+00  0.00000000E+00
 -2.49238377E-04 -1.42526693E-04  0.00000000E+00  9.07162716E-06  5.96674354E-06
  0.00000000E+00  0.00000000E+00  3.39376401E-06 -1.91364249E-05  0.00000000E+00
 -3.69337313E-05 -3.58904711E-05  0.00000000E+00  0.00000000E+00 -6.88147984E-05
 -1.58563782E-06  3.12667536E-03  3.58205591E-05  1.13238034E-04 -7.06783420E-05
 -4.92228550E-04  7.68691424E-06  1.57484619E-05  0.00000000E+00 -6.26787654E-05
 -5.99673647E-05  0.00000000E+00  2.31930649E-04 -1.41626069E-04  0.00000000E+00
 -2.11290259E-04 -7.33787231E-05  0.00000000E+00 -8.64993304E-06  0.00000000E+00
  0.00000000E+00  2.25673424E-05  1.89597561E-05  3.94109476E-06  0.00000000E+00
  0.00000000E+00 -1.18795422E-04 -4.28982047E-05 -2.41239157E-06  0.00000000E+00
  0.00000000E+00 -2.21478203E-04 -1.78048017E-04  0.00000000E+00  3.39184244E-06
  5.02117940E-07  0.00000000E+00  0.00000000E+00  2.01500795E-06 -1.49194672E-05
  0.00000000E+00 -4.74266174E-05 -1.10332210E-06  0.00000000E+00  0.00000000E+00
 -8.08531221E-05  1.98699208E-04  2.58777075E-04  1.46604953E-03 -7.85802956E-05
 -1.55620895E-03  3.57173785E-04 -1.44746422E-04 -6.10552643E-07  0.00000000E+00
 -2.07698934E-03 -4.03787589E-04  0.00000000E+00  9.74815515E-04  7.32430154E-04
  0.00000000E+00 -1.67656961E-04  4.99234679E-05  0.00000000E+00 -1.23535868E-04
  0.00000000E+00  0.00000000E+00  2.42288867E-04  9.63874526E-05 -4.40402661E-04
  0.00000000E+00  0.00000000E+00  8.99948870E-04 -6.85711435E-05  1.48772479E-05
  0.00000000E+00  0.00000000E+00 -3.28486439E-04 -1.37397858E-04  0.00000000E+00
 -2.55827897E-06  1.45670235E-05  0.00000000E+00  0.00000000E+00  2.03268422E-05
  1.58710940E-05  0.00000000E+00  1.73347804E-04 -6.80217816E-05  0.00000000E+00
  0.00000000E+00 -2.42711680E-04  3.13204766E-05  9.76648325E-01 -9.85206080E-03
  4.35647720E-02  4.47181072E-03 -4.37339927E-04  2.14834113E-03  4.91712034E-04
  0.00000000E+00 -2.38341609E-03 -6.12764986E-04  0.00000000E+00  1.14817766E-03
  2.00425484E-07  0.00000000E+00  7.69802285E-06 -4.73073278E-05  0.00000000E+00
 -2.31478597E-04  0.00000000E+00  0.00000000E+00  1.02998487E-04  3.15936066E-05
  3.90441702E-04  0.00000000E+00  0.00000000E+00 -8.27825068E-04 -4.24743095E-04
 -1.59319882E-04  0.00000000E+00  0.00000000E+00  2.63449821E-04  2.26788150E-05
  0.00000000E+00  5.22438443E-05  1.81839441E-05  0.00000000E+00  0.00000000E+00
 -2.14414195E-05 -1.38482027E-05  0.00000000E+00  1.36828677E-04  8.80437313E-06
  0.00000000E+00  0.00000000E+00 -1.87146031E-04 -1.42104492E-04  4.69670716E-04
  1.93786939E-03  7.67479966E-05  1.38131865E-05 -3.34223923E-05 -2.43710723E-04
  0.00000000E+00  1.69466617E-04 -1.23191088E-03  0.00000000E+00  3.64754242E-04
 -3.07466349E-04  0.00000000E+00 -9.52065061E-07  0.00000000E+00  0.00000000E+00
  7.64051635E-05  2.41272285E-05 -1.62419122E-04  0.00000000E+00  0.00000000E+00
 -5.32149877E-04 -7.09766220E-05  9.76831484E-01 -9.15761610E-03  4.34450157E-02
  2.58383282E-04 -1.25909318E-03 -1.62993733E-03  1.37007966E-03  0.00000000E+00
  1.63716038E-03 -1.20973088E-03  0.00000000E+00 -5.25185893E-04 -7.30813571E-04
  0.00000000E+00  6.45628282E-05 -6.79823785E-05  0.00000000E+00  3.07755401E-05
  0.00000000E+00  0.00000000E+00 -1.15319079E-04 -1.52905983E-05  7.50984595E-04
  0.00000000E+00  0.00000000E+00 -1.99735093E-04 -2.48674897E-04 -2.66467981E-04
  0.00000000E+00  0.00000000E+00  1.56468664E-04  9.36304636E-05  0.00000000E+00
 -6.49682107E-05  2.61853757E-07  0.00000000E+00  0.00000000E+00  2.00328599E-05
  1.18141810E-05  0.00000000E+00 -6.82177554E-06  1.11346339E-04  0.00000000E+00
  0.00000000E+00  2.34007840E-04  1.18106100E-04 -4.88889483E-03 -2.09293806E-04