title                                                                   
SP        RMP2-FC                                                     Aug-CC-pVTZ         
Number of atoms                            I                5
Info1-9                                    I   N=           9
          33          24           0           0           0         110
           1           2           1
Full Title                                 C   N=           1
title       
Route                                      C   N=           4
#p SP mp2/aug-cc-pvtz density=current           
Charge                                     I                0
Multiplicity                               I                1
Number of electrons                        I               32
Number of alpha electrons                  I               16
Number of beta electrons                   I               16
Number of basis functions                  I              207
Number of independent functions            I              207
Number of point charges in /Mol/           I                0
Number of translation vectors              I                0
Atomic numbers                             I   N=           5
           1           8           8           7           8
Nuclear charges                            R   N=           5
  1.00000000E+00  8.00000000E+00  8.00000000E+00  7.00000000E+00  8.00000000E+00
Current cartesian coordinates              R   N=          15
  2.92449328E+00  3.16130063E+00  7.87418844E-31  2.74777477E+00  1.36717493E+00
  2.68522284E-31 -9.54622846E-17  1.27268248E+00  3.26013474E-31 -4.94228582E-01
 -1.43935475E+00 -1.97136037E-31 -2.68088642E+00 -1.77558459E+00 -5.73844077E-31
Number of symbols in /Mol/                 I                0
Force Field                                I                0
Atom Types                                 C   N=           5
                                                            
Int Atom Types                             I   N=           5
           0           0           0           0           0
MM charges                                 R   N=           5
  0.00000000E+00  0.00000000E+00  0.00000000E+00  0.00000000E+00  0.00000000E+00
Integer atomic weights                     I   N=           5
           1          16          16          14          16
Real atomic weights                        R   N=           5
  1.00782504E+00  1.59949146E+01  1.59949146E+01  1.40030740E+01  1.59949146E+01
Atom fragment info                         I   N=           5
           0           0           0           0           0
Atom residue num                           I   N=           5
           0           0           0           0           0
Nuclear spins                              I   N=           5
           1           0           0           2           0
Nuclear ZEff                               R   N=           5
 -1.00000000E+00 -5.60000000E+00 -5.60000000E+00 -4.55000000E+00 -5.60000000E+00
Nuclear ZNuc                               R   N=           5
  1.00000000E+00  8.00000000E+00  8.00000000E+00  7.00000000E+00  8.00000000E+00
Nuclear QMom                               R   N=           5
  0.00000000E+00  0.00000000E+00  0.00000000E+00  2.04400000E+00  0.00000000E+00
Nuclear GFac                               R   N=           5
  2.79284600E+00  0.00000000E+00  0.00000000E+00  4.03761000E-01  0.00000000E+00
MicOpt                                     I   N=           5
          -1          -1          -1          -1          -1
Number of residues                         I                0
Number of secondary structures             I                0
SymInf integers                            I   N=          26
           1           2           1           1           1           1
           1          -1           0           0           0           0
           0           0           0           0           0           0
           0           0           0           0           0           0
           0           0
RotTr to input orientation                 R   N=          12
 -9.95184048E-01  6.67533740E-16 -9.80240327E-02  9.80240327E-02 -9.21380082E-16
 -9.95184048E-01 -7.54636321E-16 -1.00000000E+00  8.51508410E-16  2.60052562E+00
  0.00000000E+00  3.43274658E+00
Number of contracted shells                I               65
Number of primitive shells                 I              119
Pure/Cartesian d shells                    I                0
Pure/Cartesian f shells                    I                0
Highest angular momentum                   I                3
Largest degree of contraction              I                7
Shell types                                I   N=          65
           0           0           0           0           1           1
           1          -2          -2           0           0           0
           0           0           1           1           1           1
          -2          -2          -2          -3          -3           0
           0           0           0           0           1           1
           1           1          -2          -2          -2          -3
          -3           0           0           0           0           0
           1           1           1           1          -2          -2
          -2          -3          -3           0           0           0
           0           0           1           1           1           1
          -2          -2          -2          -3          -3
Number of primitives per shell             I   N=          65
           3           1           1           1           1           1
           1           1           1           7           6           1
           1           1           3           1           1           1
           1           1           1           1           1           7
           6           1           1           1           3           1
           1           1           1           1           1           1
           1           7           6           1           1           1
           3           1           1           1           1           1
           1           1           1           7           6           1
           1           1           3           1           1           1
           1           1           1           1           1
Shell to atom map                          I   N=          65
           1           1           1           1           1           1
           1           1           1           2           2           2
           2           2           2           2           2           2
           2           2           2           2           2           3
           3           3           3           3           3           3
           3           3           3           3           3           3
           3           4           4           4           4           4
           4           4           4           4           4           4
           4           4           4           5           5           5
           5           5           5           5           5           5
           5           5           5           5           5
Primitive exponents                        R   N=         119
  3.38700000E+01  5.09500000E+00  1.15900000E+00  3.25800000E-01  1.02700000E-01
  2.52600000E-02  1.40700000E+00  3.88000000E-01  1.02000000E-01  1.05700000E+00
  2.47000000E-01  1.53300000E+04  2.29900000E+03  5.22400000E+02  1.47300000E+02
  4.75500000E+01  1.67600000E+01  6.20700000E+00  5.22400000E+02  1.47300000E+02
  4.75500000E+01  1.67600000E+01  6.20700000E+00  6.88200000E-01  1.75200000E+00
  2.38400000E-01  7.37600000E-02  3.44600000E+01  7.74900000E+00  2.28000000E+00
  7.15600000E-01  2.14000000E-01  5.97400000E-02  2.31400000E+00  6.45000000E-01
  2.14000000E-01  1.42800000E+00  5.00000000E-01  1.53300000E+04  2.29900000E+03
  5.22400000E+02  1.47300000E+02  4.75500000E+01  1.67600000E+01  6.20700000E+00
  5.22400000E+02  1.47300000E+02  4.75500000E+01  1.67600000E+01  6.20700000E+00
  6.88200000E-01  1.75200000E+00  2.38400000E-01  7.37600000E-02  3.44600000E+01
  7.74900000E+00  2.28000000E+00  7.15600000E-01  2.14000000E-01  5.97400000E-02
  2.31400000E+00  6.45000000E-01  2.14000000E-01  1.42800000E+00  5.00000000E-01
  1.14200000E+04  1.71200000E+03  3.89300000E+02  1.10000000E+02  3.55700000E+01
  1.25400000E+01  4.64400000E+00  3.89300000E+02  1.10000000E+02  3.55700000E+01
  1.25400000E+01  4.64400000E+00  5.11800000E-01  1.29300000E+00  1.78700000E-01
  5.76000000E-02  2.66300000E+01  5.94800000E+00  1.74200000E+00  5.55000000E-01
  1.72500000E-01  4.91000000E-02  1.65400000E+00  4.69000000E-01  1.51000000E-01
  1.09300000E+00  3.64000000E-01  1.53300000E+04  2.29900000E+03  5.22400000E+02
  1.47300000E+02  4.75500000E+01  1.67600000E+01  6.20700000E+00  5.22400000E+02
  1.47300000E+02  4.75500000E+01  1.67600000E+01  6.20700000E+00  6.88200000E-01
  1.75200000E+00  2.38400000E-01  7.37600000E-02  3.44600000E+01  7.74900000E+00
  2.28000000E+00  7.15600000E-01  2.14000000E-01  5.97400000E-02  2.31400000E+00
  6.45000000E-01  2.14000000E-01  1.42800000E+00  5.00000000E-01
Contraction coefficients                   R   N=         119
  2.54948632E-02  1.90362766E-01  8.52162022E-01  1.00000000E+00  1.00000000E+00
  1.00000000E+00  1.00000000E+00  1.00000000E+00  1.00000000E+00  1.00000000E+00
  1.00000000E+00  5.19808943E-04  4.02025621E-03  2.07128267E-02  8.10105536E-02
  2.35962985E-01  4.42653446E-01  3.57064423E-01 -4.42115008E-05 -1.22591041E-03
 -1.05517725E-02 -6.74452633E-02 -1.71198607E-01  1.07329856E+00  1.00000000E+00
  1.00000000E+00  1.00000000E+00  4.11634896E-02  2.57762836E-01  8.02419274E-01
  1.00000000E+00  1.00000000E+00  1.00000000E+00  1.00000000E+00  1.00000000E+00
  1.00000000E+00  1.00000000E+00  1.00000000E+00  5.19808943E-04  4.02025621E-03
  2.07128267E-02  8.10105536E-02  2.35962985E-01  4.42653446E-01  3.57064423E-01
 -4.42115008E-05 -1.22591041E-03 -1.05517725E-02 -6.74452633E-02 -1.71198607E-01
  1.07329856E+00  1.00000000E+00  1.00000000E+00  1.00000000E+00  4.11634896E-02
  2.57762836E-01  8.02419274E-01  1.00000000E+00  1.00000000E+00  1.00000000E+00
  1.00000000E+00  1.00000000E+00  1.00000000E+00  1.00000000E+00  1.00000000E+00
  5.34563860E-04  4.13435660E-03  2.12335358E-02  8.25006224E-02  2.38138871E-01
  4.42551547E-01  3.53757422E-01 -4.89867350E-05 -1.19527323E-03 -1.03490714E-02
 -6.48680190E-02 -1.71552477E-01  1.07289568E+00  1.00000000E+00  1.00000000E+00
  1.00000000E+00  3.98072123E-02  2.49002660E-01  8.10479727E-01  1.00000000E+00
  1.00000000E+00  1.00000000E+00  1.00000000E+00  1.00000000E+00  1.00000000E+00
  1.00000000E+00  1.00000000E+00  5.19808943E-04  4.02025621E-03  2.07128267E-02
  8.10105536E-02  2.35962985E-01  4.42653446E-01  3.57064423E-01 -4.42115008E-05
 -1.22591041E-03 -1.05517725E-02 -6.74452633E-02 -1.71198607E-01  1.07329856E+00
  1.00000000E+00  1.00000000E+00  1.00000000E+00  4.11634896E-02  2.57762836E-01
  8.02419274E-01  1.00000000E+00  1.00000000E+00  1.00000000E+00  1.00000000E+00
  1.00000000E+00  1.00000000E+00  1.00000000E+00  1.00000000E+00
Coordinates of each shell                  R   N=         195
  2.92449328E+00  3.16130063E+00  1.94306296E-31  2.92449328E+00  3.16130063E+00
  1.94306296E-31  2.92449328E+00  3.16130063E+00  1.94306296E-31  2.92449328E+00
  3.16130063E+00  1.94306296E-31  2.92449328E+00  3.16130063E+00  1.94306296E-31
  2.92449328E+00  3.16130063E+00  1.94306296E-31  2.92449328E+00  3.16130063E+00
  1.94306296E-31  2.92449328E+00  3.16130063E+00  1.94306296E-31  2.92449328E+00
  3.16130063E+00  1.94306296E-31  2.74777477E+00  1.36717493E+00  2.52486038E-32
  2.74777477E+00  1.36717493E+00  2.52486038E-32  2.74777477E+00  1.36717493E+00
  2.52486038E-32  2.74777477E+00  1.36717493E+00  2.52486038E-32  2.74777477E+00
  1.36717493E+00  2.52486038E-32  2.74777477E+00  1.36717493E+00  2.52486038E-32
  2.74777477E+00  1.36717493E+00  2.52486038E-32  2.74777477E+00  1.36717493E+00
  2.52486038E-32  2.74777477E+00  1.36717493E+00  2.52486038E-32  2.74777477E+00
  1.36717493E+00  2.52486038E-32  2.74777477E+00  1.36717493E+00  2.52486038E-32
  2.74777477E+00  1.36717493E+00  2.52486038E-32  2.74777477E+00  1.36717493E+00
  2.52486038E-32  2.74777477E+00  1.36717493E+00  2.52486038E-32 -4.05164255E-18
  1.27268248E+00  1.24891798E-31 -4.05164255E-18  1.27268248E+00  1.24891798E-31
 -4.05164255E-18  1.27268248E+00  1.24891798E-31 -4.05164255E-18  1.27268248E+00
  1.24891798E-31 -4.05164255E-18  1.27268248E+00  1.24891798E-31 -4.05164255E-18
  1.27268248E+00  1.24891798E-31 -4.05164255E-18  1.27268248E+00  1.24891798E-31
 -4.05164255E-18  1.27268248E+00  1.24891798E-31 -4.05164255E-18  1.27268248E+00
  1.24891798E-31 -4.05164255E-18  1.27268248E+00  1.24891798E-31 -4.05164255E-18
  1.27268248E+00  1.24891798E-31 -4.05164255E-18  1.27268248E+00  1.24891798E-31
 -4.05164255E-18  1.27268248E+00  1.24891798E-31 -4.05164255E-18  1.27268248E+00
  1.24891798E-31 -4.94228582E-01 -1.43935475E+00 -1.21657623E-31 -4.94228582E-01
 -1.43935475E+00 -1.21657623E-31 -4.94228582E-01 -1.43935475E+00 -1.21657623E-31
 -4.94228582E-01 -1.43935475E+00 -1.21657623E-31 -4.94228582E-01 -1.43935475E+00
 -1.21657623E-31 -4.94228582E-01 -1.43935475E+00 -1.21657623E-31 -4.94228582E-01
 -1.43935475E+00 -1.21657623E-31 -4.94228582E-01 -1.43935475E+00 -1.21657623E-31
 -4.94228582E-01 -1.43935475E+00 -1.21657623E-31 -4.94228582E-01 -1.43935475E+00
 -1.21657623E-31 -4.94228582E-01 -1.43935475E+00 -1.21657623E-31 -4.94228582E-01
 -1.43935475E+00 -1.21657623E-31 -4.94228582E-01 -1.43935475E+00 -1.21657623E-31
 -4.94228582E-01 -1.43935475E+00 -1.21657623E-31 -2.68088642E+00 -1.77558459E+00
 -6.79782690E-32 -2.68088642E+00 -1.77558459E+00 -6.79782690E-32 -2.68088642E+00
 -1.77558459E+00 -6.79782690E-32 -2.68088642E+00 -1.77558459E+00 -6.79782690E-32
 -2.68088642E+00 -1.77558459E+00 -6.79782690E-32 -2.68088642E+00 -1.77558459E+00
 -6.79782690E-32 -2.68088642E+00 -1.77558459E+00 -6.79782690E-32 -2.68088642E+00
 -1.77558459E+00 -6.79782690E-32 -2.68088642E+00 -1.77558459E+00 -6.79782690E-32
 -2.68088642E+00 -1.77558459E+00 -6.79782690E-32 -2.68088642E+00 -1.77558459E+00
 -6.79782690E-32 -2.68088642E+00 -1.77558459E+00 -6.79782690E-32 -2.68088642E+00
 -1.77558459E+00 -6.79782690E-32 -2.68088642E+00 -1.77558459E+00 -6.79782690E-32
Num ILSW                                   I              100
ILSW                                       I   N=         100
           0           0           0           0           2           0
           0           0           0           0           0          -1
           5           0           0           0           0           0
           0           0           0           0           0           0
           1           0           0           0           0           0
           0           0      100000           0          -1           0
           0           0           0           0           0           0
           0           0           0           1           0           0
           0 -2000000000           1           0           0           0
           0           0           4          52           0           0
           0           0           0           0           0           0
           0           0           0           5           0           1
           0           0           0           0           0           0
           0           0           0           0           0           0
           0           0           0           0           0           0
           0           0           0           0           0           0
           0           0           0           0
Num RLSW                                   I               52
RLSW                                       R   N=          52
  1.00000000E+00  1.00000000E+00  1.00000000E+00  1.00000000E+00  1.00000000E+00
  0.00000000E+00  0.00000000E+00  1.00000000E+00  0.00000000E+00  0.00000000E+00
  0.00000000E+00  0.00000000E+00  1.00000000E+00  0.00000000E+00  0.00000000E+00
  0.00000000E+00  0.00000000E+00  1.00000000E+00  0.00000000E+00  0.00000000E+00
  0.00000000E+00  0.00000000E+00  1.00000000E+00  0.00000000E+00  0.00000000E+00
  0.00000000E+00  0.00000000E+00  1.00000000E+00  0.00000000E+00  0.00000000E+00
  0.00000000E+00  0.00000000E+00  1.00000000E+00  0.00000000E+00  0.00000000E+00
  0.00000000E+00  0.00000000E+00  0.00000000E+00  1.00000000E+00  1.00000000E+00
  0.00000000E+00  1.00000000E+00  0.00000000E+00  0.00000000E+00  0.00000000E+00
  0.00000000E+00  0.00000000E+00  0.00000000E+00  0.00000000E+00  0.00000000E+00
  0.00000000E+00  0.00000000E+00
MxBond                                     I                2
NBond                                      I   N=           5
           1           2           2           2           1
IBond                                      I   N=          10
           2           0           1           3           2           4
           3           5           4           0
RBond                                      R   N=          10
  1.00000000E+00  0.00000000E+00  1.00000000E+00  1.00000000E+00  1.00000000E+00
  1.00000000E+00  1.00000000E+00  2.00000000E+00  2.00000000E+00  0.00000000E+00
Virial Ratio                               R      2.002251881946568E+00
SCF Energy                                 R     -2.795021891968029E+02
MP2 Energy                                 R     -2.804465226011971E+02
Total Energy                               R     -2.804465226011971E+02
Post-SCF wavefunction norm                 R      1.119965480260672E+00
RMS Density                                R      3.787158541468215E-09
Job Status                                 I                1
Nuclear derivative order                   I                0
External E-field                           R   N=          35
  0.00000000E+00  0.00000000E+00  0.00000000E+00  0.00000000E+00  0.00000000E+00
  0.00000000E+00  0.00000000E+00  0.00000000E+00  0.00000000E+00  0.00000000E+00
  0.00000000E+00  0.00000000E+00  0.00000000E+00  0.00000000E+00  0.00000000E+00
  0.00000000E+00  0.00000000E+00  0.00000000E+00  0.00000000E+00  0.00000000E+00
  0.00000000E+00  0.00000000E+00  0.00000000E+00  0.00000000E+00  0.00000000E+00
  0.00000000E+00  0.00000000E+00  0.00000000E+00  0.00000000E+00  0.00000000E+00
  0.00000000E+00  0.00000000E+00  0.00000000E+00  0.00000000E+00  0.00000000E+00
IOpCl                                      I                0
IROHF                                      I                0
Alpha Orbital Energies                     R   N=         207
 -2.06912899E+01 -2.06845869E+01 -2.06587934E+01 -1.58131461E+01 -1.62438432E+00
 -1.49764142E+00 -1.25738538E+00 -9.48416798E-01 -7.74088393E-01 -7.60362286E-01
 -7.12149603E-01 -6.81630056E-01 -6.20908714E-01 -5.90146484E-01 -4.85743552E-01
 -4.72911263E-01  2.99053700E-02  7.14415183E-02  8.58768767E-02  1.01677102E-01
  1.33844753E-01  1.33919382E-01  1.44671397E-01  1.55104978E-01  1.78036649E-01
  1.94133737E-01  1.99757702E-01  2.06370361E-01  2.20761507E-01  2.35003660E-01
  2.37238465E-01  2.66397771E-01  2.93698172E-01  3.04575613E-01  3.11033976E-01
  3.43304981E-01  3.48917574E-01  3.87397916E-01  4.23655706E-01  4.33861789E-01
  5.27218559E-01  5.29048242E-01  5.58451821E-01  5.81405852E-01  6.25772616E-01
  6.38258771E-01  6.74267972E-01  6.85832350E-01  7.06328916E-01  7.11699095E-01
  7.25373101E-01  7.29491219E-01  7.44974977E-01  7.91145040E-01  7.92262386E-01
  8.10549647E-01  8.12549108E-01  8.30793082E-01  8.68013896E-01  9.07935979E-01
  9.22730371E-01  9.26539092E-01  9.57815107E-01  9.75710071E-01  9.86641638E-01
  1.01964202E+00  1.05128796E+00  1.05489151E+00  1.08371142E+00  1.12000355E+00
  1.14296388E+00  1.18897459E+00  1.22168838E+00  1.23555832E+00  1.33839279E+00
  1.34967433E+00  1.38599300E+00  1.45769113E+00  1.49192214E+00  1.51154785E+00
  1.53761018E+00  1.56699018E+00  1.57880866E+00  1.61506381E+00  1.66276060E+00
  1.66894534E+00  1.70340772E+00  1.79352814E+00  1.83178221E+00  1.83437364E+00
  1.87779670E+00  1.91153367E+00  1.96378755E+00  1.99269989E+00  2.00884238E+00
  2.07787159E+00  2.12268359E+00  2.13182323E+00  2.14990440E+00  2.22523215E+00
  2.26295543E+00  2.26562651E+00  2.28960583E+00  2.31588758E+00  2.34481538E+00
  2.38919129E+00  2.42454254E+00  2.43006790E+00  2.45407300E+00  2.46307424E+00
  2.47746785E+00  2.50235054E+00  2.58377052E+00  2.59717955E+00  2.62027293E+00
  2.62659449E+00  2.63410339E+00  2.66546850E+00  2.75745867E+00  2.82009817E+00
  2.85631105E+00  2.88497298E+00  2.89360252E+00  2.92559685E+00  2.95761863E+00
  3.02758879E+00  3.06914452E+00  3.11968626E+00  3.20422028E+00  3.22788026E+00
  3.31876551E+00  3.34318936E+00  3.51641226E+00  3.64910179E+00  3.83863544E+00
  3.86100011E+00  4.16224758E+00  4.16814167E+00  4.18730670E+00  4.25909797E+00
  4.36466619E+00  4.39638526E+00  4.46832706E+00  4.52471726E+00  4.66339251E+00
  4.71635130E+00  4.80664504E+00  4.82405312E+00  4.85403709E+00  4.89603328E+00
  5.02318441E+00  5.07755134E+00  5.11586659E+00  5.15339104E+00  5.18746915E+00
  5.26531320E+00  5.27592125E+00  5.31194806E+00  5.35937666E+00  5.36687119E+00
  5.61441070E+00  5.67362058E+00  5.77371500E+00  5.83740872E+00  5.95911659E+00
  6.16545412E+00  6.30909899E+00  6.33610809E+00  6.39830765E+00  6.49358562E+00
  6.50541772E+00  6.61618434E+00  6.66658028E+00  6.69978230E+00  6.75695991E+00
  6.76305071E+00  6.83305613E+00  6.89819393E+00  7.02206753E+00  7.05756274E+00
  7.05946187E+00  7.09155479E+00  7.12726086E+00  7.15298351E+00  7.18139947E+00
  7.22885362E+00  7.26904622E+00  7.32197905E+00  7.32603022E+00  7.35299573E+00
  7.39871537E+00  7.43416298E+00  7.48442347E+00  7.60905291E+00  7.62112848E+00
  7.62995557E+00  7.67082386E+00  7.80744976E+00  7.88750478E+00  8.09920100E+00
  8.31885504E+00  8.42846734E+00  8.54975463E+00  1.33950131E+01  1.44070466E+01
  1.53873706E+01  1.61524053E+01
Alpha MO coefficients                      R   N=       42849
  9.36322624E-05 -6.44125086E-04 -7.37609452E-04 -5.00703565E-06 -2.00549998E-05
 -2.56015507E-05  0.00000000E+00 -7.60964819E-05  4.44463787E-05  0.00000000E+00
  6.47383224E-05  3.03344247E-05  0.00000000E+00  3.22473075E-05  0.00000000E+00
  0.00000000E+00 -5.12577010E-05  2.44459424E-05 -7.88325516E-06  0.00000000E+00
  0.00000000E+00 -1.41801040E-04  1.35759301E-04  4.35305686E-03 -2.85756934E-04
  3.92087737E-06  1.55349337E-03  1.84194094E-03  1.06545286E-04  7.26247985E-06
  0.00000000E+00 -6.17172583E-04 -4.28910306E-05  0.00000000E+00 -1.06007529E-03
  8.04742592E-04  0.00000000E+00 -3.96466254E-04  7.71957465E-05  0.00000000E+00
  2.93593753E-05  0.00000000E+00  0.00000000E+00 -5.41808455E-05  4.88354089E-06
 -3.79773491E-04  0.00000000E+00  0.00000000E+00  7.45658473E-04 -2.49499029E-05
 -4.46665317E-04  0.00000000E+00  0.00000000E+00  2.41244237E-04 -2.15466584E-06
  0.00000000E+00  8.05688369E-05  1.28667449E-05  0.00000000E+00  0.00000000E+00
 -1.09375702E-04 -3.03265852E-06  0.00000000E+00  2.52491455E-04 -2.92266461E-05
  0.00000000E+00  0.00000000E+00 -3.60780654E-04  5.35367945E-05  9.76912110E-01
 -9.21741744E-03  4.33191145E-02  2.04582447E-03 -9.23650266E-04  1.49568585E-03
 -1.35451863E-03  0.00000000E+00 -1.43905455E-03  1.38322919E-03  0.00000000E+00
  8.20775978E-05 -1.16335177E-03  0.00000000E+00 -1.48887913E-04 -2.62475059E-05
  0.00000000E+00  4.63302776E-05  0.00000000E+00  0.00000000E+00 -3.52536706E-05
  2.16480374E-05  7.47990136E-04  0.00000000E+00  0.00000000E+00 -2.35260542E-04
 -3.89962742E-04 -3.59125114E-04  0.00000000E+00  0.00000000E+00 -3.14089573E-04
 -3.74552699E-04  0.00000000E+00  4.74638611E-05 -4.91180089E-05  0.00000000E+00
  0.00000000E+00 -3.91807806E-05 -1.56477353E-05  0.00000000E+00  2.43101904E-05
  2.27888653E-05  0.00000000E+00  0.00000000E+00 -3.06155216E-04 -1.40697089E-04
  3.89969477E-05  4.57025611E-05 -2.64100966E-04 -6.97650027E-04 -1.39700249E-04
 -2.66912041E-05 -9.73451747E-05  0.00000000E+00  2.65577168E-04  7.07837994E-04
  0.00000000E+00 -8.32290489E-04 -4.74559502E-04  0.00000000E+00 -1.18546514E-04
 -2.54643937E-05  0.00000000E+00 -1.81536011E-05  0.00000000E+00  0.00000000E+00
 -2.95470386E-05  1.49091273E-05 -3.28702741E-04  0.00000000E+00  0.00000000E+00
 -8.26787946E-04  1.27380589E-04 -3.78229100E-05  0.00000000E+00  0.00000000E+00
  9.80743463E-05 -1.15027047E-04  0.00000000E+00 -2.02267525E-05 -1.19797512E-04
  0.00000000E+00  0.00000000E+00 -6.26931501E-05 -1.38239629E-04  0.00000000E+00
  1.20405108E-06 -1.53619872E-04  0.00000000E+00  0.00000000E+00  4.33453944E-05
 -4.15047505E-04 -2.52886003E-03  1.22228325E-04 -1.21006479E-04 -2.48691061E-04
  1.27633247E-04 -7.69036358E-06 -2.75238274E-05  0.00000000E+00  6.80601560E-05
  1.62292126E-04  0.00000000E+00  2.29640744E-04  1.97333645E-04  0.00000000E+00
  1.24216914E-04  2.02046401E-05  0.00000000E+00 -3.29205979E-06  0.00000000E+00
  0.00000000E+00 -1.78598698E-05  1.32633579E-06  9.41362141E-07  0.00000000E+00
  0.00000000E+00  7.92600784E-05  8.65870400E-05 -9.94561329E-05  0.00000000E+00
  0.00000000E+00  1.65586519E-04  1.60270605E-04  0.00000000E+00  1.59844595E-05
 -3.53369071E-06  0.00000000E+00  0.00000000E+00 -4.42746906E-06 -1.19715552E-05
  0.00000000E+00 -3.36394987E-05  4.54415736E-05  0.00000000E+00  0.00000000E+00
  8.31882646E-05  8.97199848E-05  3.83609708E-05 -1.02126601E-03 -5.11644690E-04
 -1.14433540E-05 -2.25675252E-05  1.77220895E-05  0.00000000E+00 -3.00863133E-06
  2.74356484E-04  0.00000000E+00 -4.33365109E-05  1.36659242E-04  0.00000000E+00
  2.63054685E-05  0.00000000E+00  0.00000000E+00  1.17958081E-05  1.08912116E-05
 -2.91365514E-05  0.00000000E+00  0.00000000E+00  1.03439883E-05  3.70065273E-05
  1.07144721E-04  8.64905751E-05 -2.77854021E-05  7.85190668E-04  6.75959274E-04
  1.02259757E-05  2.52235858E-06  0.00000000E+00 -7.20125789E-05  1.91478043E-05
  0.00000000E+00  3.38825113E-04  9.20218542E-04  0.00000000E+00  2.39298549E-06
  8.39510709E-05  0.00000000E+00 -2.33994857E-06  0.00000000E+00  0.00000000E+00
 -4.24940431E-07 -6.09233986E-06 -3.63544948E-05  0.00000000E+00  0.00000000E+00
 -1.92954649E-05  8.50082134E-05 -2.37824032E-05  0.00000000E+00  0.00000000E+00
 -2.70218877E-04 -1.62878315E-04  0.00000000E+00  9.16111621E-06  5.96248686E-06
  0.00000000E+00  0.00000000E+00  2.53964449E-06 -1.86139247E-05  0.00000000E+00
 -4.04910738E-05 -3.79965764E-05  0.00000000E+00  0.00000000E+00 -7.74768742E-05
  2.10405143E-05  2.56787965E-03  3.94659948E-05  8.92948151E-05 -6.95096108E-05
 -4.70570039E-04  7.32388992E-06  1.58902863E-05  0.00000000E+00 -6.28306899E-05
 -5.57937219E-05  0.00000000E+00  2.33873845E-04 -1.90091833E-04  0.00000000E+00
 -1.89387942E-04 -6.54922013E-05  0.00000000E+00 -8.71471728E-06  0.00000000E+00
  0.00000000E+00  2.24024047E-05  1.98209210E-05  4.53368033E-06  0.00000000E+00
  0.00000000E+00 -1.17752436E-04 -4.68000766E-05 -4.07403793E-06  0.00000000E+00
  0.00000000E+00 -2.23190116E-04 -2.07270324E-04  0.00000000E+00  3.30936989E-06
 -5.30066714E-07  0.00000000E+00  0.00000000E+00  1.72001451E-06 -1.36448050E-05
  0.00000000E+00 -4.65828713E-05  3.44826059E-06  0.00000000E+00  0.00000000E+00
 -7.67014319E-05  1.88029811E-04  2.58705506E-04  1.46527491E-03 -7.79687253E-05
 -1.53915554E-03  3.92674138E-04 -1.44413207E-04  1.54337062E-07  0.00000000E+00
 -2.09053669E-03 -4.04343253E-04  0.00000000E+00  1.04020364E-03  7.62663793E-04
  0.00000000E+00 -1.71626014E-04  5.33552497E-05  0.00000000E+00 -1.23352341E-04
  0.00000000E+00  0.00000000E+00  2.43127742E-04  9.40774328E-05 -4.42450126E-04
  0.00000000E+00  0.00000000E+00  8.99184132E-04 -6.61098103E-05  1.15836518E-05
  0.00000000E+00  0.00000000E+00 -3.38257199E-04 -1.22596083E-04  0.00000000E+00
 -1.23252020E-06  1.53009044E-05  0.00000000E+00  0.00000000E+00  1.88258242E-05
  1.32652985E-05  0.00000000E+00  1.64468615E-04 -7.19013401E-05  0.00000000E+00
  0.00000000E+00 -2.40494058E-04  4.26418705E-05  9.76649519E-01 -9.84825569E-03
  4.35679476E-02  4.50144492E-03 -4.45009212E-04  2.14828134E-03  4.81262685E-04
  0.00000000E+00 -2.38430024E-03 -6.04353870E-04  0.00000000E+00  1.13890493E-03
 -3.04231696E-06  0.00000000E+00  5.17451385E-06 -4.14302127E-05  0.00000000E+00
 -2.32371635E-04  0.00000000E+00  0.00000000E+00  1.02756010E-04  3.18595895E-05
  3.90705316E-04  0.00000000E+00  0.00000000E+00 -8.34209350E-04 -4.19507100E-04
 -1.53417126E-04  0.00000000E+00  0.00000000E+00  2.55574365E-04  1.71116590E-05
  0.00000000E+00  5.22736197E-05  1.77167653E-05  0.00000000E+00  0.00000000E+00
 -2.21313349E-05 -1.32946667E-05  0.00000000E+00  1.38443034E-04  9.23475562E-06
  0.00000000E+00  0.00000000E+00 -1.89892255E-04 -1.40743025E-04  5.06201511E-04
  1.70146201E-03 -1.09089267E-04  5.37911810E-06 -4.01173428E-05 -1.98849825E-04
  0.00000000E+00  1.28044722E-04 -1.09978776E-03  0.00000000E+00  3.19401878E-04
 -2.75530525E-04  0.00000000E+00  2.96772934E-05  0.00000000E+00  0.00000000E+00
  1.33358533E-04  8.68372196E-06 -1.51028711E-04  0.00000000E+00  0.00000000E+00
 -5.23952967E-04 -2.32323640E-05  9.76824692E-01 -9.11448444E-03  4.34661218E-02
  4.60660809E-04 -9.48952320E-04 -1.56074437E-03  1.44431242E-03  0.00000000E+00
  1.58593718E-03 -1.17322699E-03  0.00000000E+00 -5.15762813E-04 -6.58145615E-04
  0.00000000E+00  4.46869736E-05 -7.16360387E-06  0.00000000E+00  2.07532646E-05
  0.00000000E+00  0.00000000E+00 -1.31473299E-04 -1.29033093E-06  7.32678578E-04
  0.00000000E+00  0.00000000E+00 -2.49228534E-04 -2.20317444E-04 -2.85044826E-04
  0.00000000E+00  0.00000000E+00  1.23660735E-04  1.34009255E-04  0.00000000E+00
 -6.52742446E-05 -8.55798310E-06  0.00000000E+00  0.00000000E+00  1.40206583E-05
 -3.56542686E-06  0.00000000E+00 -3.76268993E-06  1.23894597E-04  0.00000000E+00
  0.00000000E+00  2.55347729E-04  9.25192238E-05 -4.44705117E-03 -2.18249121E-04