title                                                                   
SP        RMP2-FC                                                     Aug-CC-pVTZ         
Number of atoms                            I                5
Info1-9                                    I   N=           9
          33          24           0           0           0         110
           1           2           1
Full Title                                 C   N=           1
title       
Route                                      C   N=           4
#p SP mp2/aug-cc-pvtz density=current           
Charge                                     I                0
Multiplicity                               I                1
Number of electrons                        I               32
Number of alpha electrons                  I               16
Number of beta electrons                   I               16
Number of basis functions                  I              207
Number of independent functions            I              207
Number of point charges in /Mol/           I                0
Number of translation vectors              I                0
Atomic numbers                             I   N=           5
           1           8           8           7           8
Nuclear charges                            R   N=           5
  1.00000000E+00  8.00000000E+00  8.00000000E+00  7.00000000E+00  8.00000000E+00
Current cartesian coordinates              R   N=          15
  2.93475923E+00  3.17633986E+00  5.76059082E-31  2.74812414E+00  1.35477768E+00
  5.54125036E-32  1.32715577E-16  1.27105946E+00  1.00141272E-31 -5.04858171E-01
 -1.43901915E+00 -2.18891061E-31 -2.67321814E+00 -1.76373787E+00 -2.72247721E-31
Number of symbols in /Mol/                 I                0
Force Field                                I                0
Atom Types                                 C   N=           5
                                                            
Int Atom Types                             I   N=           5
           0           0           0           0           0
MM charges                                 R   N=           5
  0.00000000E+00  0.00000000E+00  0.00000000E+00  0.00000000E+00  0.00000000E+00
Integer atomic weights                     I   N=           5
           1          16          16          14          16
Real atomic weights                        R   N=           5
  1.00782504E+00  1.59949146E+01  1.59949146E+01  1.40030740E+01  1.59949146E+01
Atom fragment info                         I   N=           5
           0           0           0           0           0
Atom residue num                           I   N=           5
           0           0           0           0           0
Nuclear spins                              I   N=           5
           1           0           0           2           0
Nuclear ZEff                               R   N=           5
 -1.00000000E+00 -5.60000000E+00 -5.60000000E+00 -4.55000000E+00 -5.60000000E+00
Nuclear ZNuc                               R   N=           5
  1.00000000E+00  8.00000000E+00  8.00000000E+00  7.00000000E+00  8.00000000E+00
Nuclear QMom                               R   N=           5
  0.00000000E+00  0.00000000E+00  0.00000000E+00  2.04400000E+00  0.00000000E+00
Nuclear GFac                               R   N=           5
  2.79284600E+00  0.00000000E+00  0.00000000E+00  4.03761000E-01  0.00000000E+00
MicOpt                                     I   N=           5
          -1          -1          -1          -1          -1
Number of residues                         I                0
Number of secondary structures             I                0
SymInf integers                            I   N=          26
           1           2           1           1           1           1
           1          -1           0           0           0           0
           0           0           0           0           0           0
           0           0           0           0           0           0
           0           0
RotTr to input orientation                 R   N=          12
 -9.94792065E-01  6.67248104E-16 -1.01925209E-01  1.01925209E-01 -9.24073111E-16
 -9.94792065E-01 -7.57959464E-16 -1.00000000E+00  8.51251195E-16  2.59572609E+00
  0.00000000E+00  3.45892364E+00
Number of contracted shells                I               65
Number of primitive shells                 I              119
Pure/Cartesian d shells                    I                0
Pure/Cartesian f shells                    I                0
Highest angular momentum                   I                3
Largest degree of contraction              I                7
Shell types                                I   N=          65
           0           0           0           0           1           1
           1          -2          -2           0           0           0
           0           0           1           1           1           1
          -2          -2          -2          -3          -3           0
           0           0           0           0           1           1
           1           1          -2          -2          -2          -3
          -3           0           0           0           0           0
           1           1           1           1          -2          -2
          -2          -3          -3           0           0           0
           0           0           1           1           1           1
          -2          -2          -2          -3          -3
Number of primitives per shell             I   N=          65
           3           1           1           1           1           1
           1           1           1           7           6           1
           1           1           3           1           1           1
           1           1           1           1           1           7
           6           1           1           1           3           1
           1           1           1           1           1           1
           1           7           6           1           1           1
           3           1           1           1           1           1
           1           1           1           7           6           1
           1           1           3           1           1           1
           1           1           1           1           1
Shell to atom map                          I   N=          65
           1           1           1           1           1           1
           1           1           1           2           2           2
           2           2           2           2           2           2
           2           2           2           2           2           3
           3           3           3           3           3           3
           3           3           3           3           3           3
           3           4           4           4           4           4
           4           4           4           4           4           4
           4           4           4           5           5           5
           5           5           5           5           5           5
           5           5           5           5           5
Primitive exponents                        R   N=         119
  3.38700000E+01  5.09500000E+00  1.15900000E+00  3.25800000E-01  1.02700000E-01
  2.52600000E-02  1.40700000E+00  3.88000000E-01  1.02000000E-01  1.05700000E+00
  2.47000000E-01  1.53300000E+04  2.29900000E+03  5.22400000E+02  1.47300000E+02
  4.75500000E+01  1.67600000E+01  6.20700000E+00  5.22400000E+02  1.47300000E+02
  4.75500000E+01  1.67600000E+01  6.20700000E+00  6.88200000E-01  1.75200000E+00
  2.38400000E-01  7.37600000E-02  3.44600000E+01  7.74900000E+00  2.28000000E+00
  7.15600000E-01  2.14000000E-01  5.97400000E-02  2.31400000E+00  6.45000000E-01
  2.14000000E-01  1.42800000E+00  5.00000000E-01  1.53300000E+04  2.29900000E+03
  5.22400000E+02  1.47300000E+02  4.75500000E+01  1.67600000E+01  6.20700000E+00
  5.22400000E+02  1.47300000E+02  4.75500000E+01  1.67600000E+01  6.20700000E+00
  6.88200000E-01  1.75200000E+00  2.38400000E-01  7.37600000E-02  3.44600000E+01
  7.74900000E+00  2.28000000E+00  7.15600000E-01  2.14000000E-01  5.97400000E-02
  2.31400000E+00  6.45000000E-01  2.14000000E-01  1.42800000E+00  5.00000000E-01
  1.14200000E+04  1.71200000E+03  3.89300000E+02  1.10000000E+02  3.55700000E+01
  1.25400000E+01  4.64400000E+00  3.89300000E+02  1.10000000E+02  3.55700000E+01
  1.25400000E+01  4.64400000E+00  5.11800000E-01  1.29300000E+00  1.78700000E-01
  5.76000000E-02  2.66300000E+01  5.94800000E+00  1.74200000E+00  5.55000000E-01
  1.72500000E-01  4.91000000E-02  1.65400000E+00  4.69000000E-01  1.51000000E-01
  1.09300000E+00  3.64000000E-01  1.53300000E+04  2.29900000E+03  5.22400000E+02
  1.47300000E+02  4.75500000E+01  1.67600000E+01  6.20700000E+00  5.22400000E+02
  1.47300000E+02  4.75500000E+01  1.67600000E+01  6.20700000E+00  6.88200000E-01
  1.75200000E+00  2.38400000E-01  7.37600000E-02  3.44600000E+01  7.74900000E+00
  2.28000000E+00  7.15600000E-01  2.14000000E-01  5.97400000E-02  2.31400000E+00
  6.45000000E-01  2.14000000E-01  1.42800000E+00  5.00000000E-01
Contraction coefficients                   R   N=         119
  2.54948632E-02  1.90362766E-01  8.52162022E-01  1.00000000E+00  1.00000000E+00
  1.00000000E+00  1.00000000E+00  1.00000000E+00  1.00000000E+00  1.00000000E+00
  1.00000000E+00  5.19808943E-04  4.02025621E-03  2.07128267E-02  8.10105536E-02
  2.35962985E-01  4.42653446E-01  3.57064423E-01 -4.42115008E-05 -1.22591041E-03
 -1.05517725E-02 -6.74452633E-02 -1.71198607E-01  1.07329856E+00  1.00000000E+00
  1.00000000E+00  1.00000000E+00  4.11634896E-02  2.57762836E-01  8.02419274E-01
  1.00000000E+00  1.00000000E+00  1.00000000E+00  1.00000000E+00  1.00000000E+00
  1.00000000E+00  1.00000000E+00  1.00000000E+00  5.19808943E-04  4.02025621E-03
  2.07128267E-02  8.10105536E-02  2.35962985E-01  4.42653446E-01  3.57064423E-01
 -4.42115008E-05 -1.22591041E-03 -1.05517725E-02 -6.74452633E-02 -1.71198607E-01
  1.07329856E+00  1.00000000E+00  1.00000000E+00  1.00000000E+00  4.11634896E-02
  2.57762836E-01  8.02419274E-01  1.00000000E+00  1.00000000E+00  1.00000000E+00
  1.00000000E+00  1.00000000E+00  1.00000000E+00  1.00000000E+00  1.00000000E+00
  5.34563860E-04  4.13435660E-03  2.12335358E-02  8.25006224E-02  2.38138871E-01
  4.42551547E-01  3.53757422E-01 -4.89867350E-05 -1.19527323E-03 -1.03490714E-02
 -6.48680190E-02 -1.71552477E-01  1.07289568E+00  1.00000000E+00  1.00000000E+00
  1.00000000E+00  3.98072123E-02  2.49002660E-01  8.10479727E-01  1.00000000E+00
  1.00000000E+00  1.00000000E+00  1.00000000E+00  1.00000000E+00  1.00000000E+00
  1.00000000E+00  1.00000000E+00  5.19808943E-04  4.02025621E-03  2.07128267E-02
  8.10105536E-02  2.35962985E-01  4.42653446E-01  3.57064423E-01 -4.42115008E-05
 -1.22591041E-03 -1.05517725E-02 -6.74452633E-02 -1.71198607E-01  1.07329856E+00
  1.00000000E+00  1.00000000E+00  1.00000000E+00  4.11634896E-02  2.57762836E-01
  8.02419274E-01  1.00000000E+00  1.00000000E+00  1.00000000E+00  1.00000000E+00
  1.00000000E+00  1.00000000E+00  1.00000000E+00  1.00000000E+00
Coordinates of each shell                  R   N=         195
  2.93475923E+00  3.17633986E+00  4.34084404E-31  2.93475923E+00  3.17633986E+00
  4.34084404E-31  2.93475923E+00  3.17633986E+00  4.34084404E-31  2.93475923E+00
  3.17633986E+00  4.34084404E-31  2.93475923E+00  3.17633986E+00  4.34084404E-31
  2.93475923E+00  3.17633986E+00  4.34084404E-31  2.93475923E+00  3.17633986E+00
  4.34084404E-31  2.93475923E+00  3.17633986E+00  4.34084404E-31  2.93475923E+00
  3.17633986E+00  4.34084404E-31  2.74812414E+00  1.35477768E+00  4.06478943E-31
  2.74812414E+00  1.35477768E+00  4.06478943E-31  2.74812414E+00  1.35477768E+00
  4.06478943E-31  2.74812414E+00  1.35477768E+00  4.06478943E-31  2.74812414E+00
  1.35477768E+00  4.06478943E-31  2.74812414E+00  1.35477768E+00  4.06478943E-31
  2.74812414E+00  1.35477768E+00  4.06478943E-31  2.74812414E+00  1.35477768E+00
  4.06478943E-31  2.74812414E+00  1.35477768E+00  4.06478943E-31  2.74812414E+00
  1.35477768E+00  4.06478943E-31  2.74812414E+00  1.35477768E+00  4.06478943E-31
  2.74812414E+00  1.35477768E+00  4.06478943E-31  2.74812414E+00  1.35477768E+00
  4.06478943E-31  2.74812414E+00  1.35477768E+00  4.06478943E-31 -1.16809793E-17
  1.27105946E+00  0.00000000E+00 -1.16809793E-17  1.27105946E+00  0.00000000E+00
 -1.16809793E-17  1.27105946E+00  0.00000000E+00 -1.16809793E-17  1.27105946E+00
  0.00000000E+00 -1.16809793E-17  1.27105946E+00  0.00000000E+00 -1.16809793E-17
  1.27105946E+00  0.00000000E+00 -1.16809793E-17  1.27105946E+00  0.00000000E+00
 -1.16809793E-17  1.27105946E+00  0.00000000E+00 -1.16809793E-17  1.27105946E+00
  0.00000000E+00 -1.16809793E-17  1.27105946E+00  0.00000000E+00 -1.16809793E-17
  1.27105946E+00  0.00000000E+00 -1.16809793E-17  1.27105946E+00  0.00000000E+00
 -1.16809793E-17  1.27105946E+00  0.00000000E+00 -1.16809793E-17  1.27105946E+00
  0.00000000E+00 -5.04858171E-01 -1.43901915E+00 -7.46742888E-32 -5.04858171E-01
 -1.43901915E+00 -7.46742888E-32 -5.04858171E-01 -1.43901915E+00 -7.46742888E-32
 -5.04858171E-01 -1.43901915E+00 -7.46742888E-32 -5.04858171E-01 -1.43901915E+00
 -7.46742888E-32 -5.04858171E-01 -1.43901915E+00 -7.46742888E-32 -5.04858171E-01
 -1.43901915E+00 -7.46742888E-32 -5.04858171E-01 -1.43901915E+00 -7.46742888E-32
 -5.04858171E-01 -1.43901915E+00 -7.46742888E-32 -5.04858171E-01 -1.43901915E+00
 -7.46742888E-32 -5.04858171E-01 -1.43901915E+00 -7.46742888E-32 -5.04858171E-01
 -1.43901915E+00 -7.46742888E-32 -5.04858171E-01 -1.43901915E+00 -7.46742888E-32
 -5.04858171E-01 -1.43901915E+00 -7.46742888E-32 -2.67321814E+00 -1.76373787E+00
 -3.95399491E-31 -2.67321814E+00 -1.76373787E+00 -3.95399491E-31 -2.67321814E+00
 -1.76373787E+00 -3.95399491E-31 -2.67321814E+00 -1.76373787E+00 -3.95399491E-31
 -2.67321814E+00 -1.76373787E+00 -3.95399491E-31 -2.67321814E+00 -1.76373787E+00
 -3.95399491E-31 -2.67321814E+00 -1.76373787E+00 -3.95399491E-31 -2.67321814E+00
 -1.76373787E+00 -3.95399491E-31 -2.67321814E+00 -1.76373787E+00 -3.95399491E-31
 -2.67321814E+00 -1.76373787E+00 -3.95399491E-31 -2.67321814E+00 -1.76373787E+00
 -3.95399491E-31 -2.67321814E+00 -1.76373787E+00 -3.95399491E-31 -2.67321814E+00
 -1.76373787E+00 -3.95399491E-31 -2.67321814E+00 -1.76373787E+00 -3.95399491E-31
Num ILSW                                   I              100
ILSW                                       I   N=         100
           0           0           0           0           2           0
           0           0           0           0           0          -1
           5           0           0           0           0           0
           0           0           0           0           0           0
           1           0           0           0           0           0
           0           0      100000           0          -1           0
           0           0           0           0           0           0
           0           0           0           1           0           0
           0 -2000000000           1           0           0           0
           0           0           4          52           0           0
           0           0           0           0           0           0
           0           0           0           5           0           1
           0           0           0           0           0           0
           0           0           0           0           0           0
           0           0           0           0           0           0
           0           0           0           0           0           0
           0           0           0           0
Num RLSW                                   I               52
RLSW                                       R   N=          52
  1.00000000E+00  1.00000000E+00  1.00000000E+00  1.00000000E+00  1.00000000E+00
  0.00000000E+00  0.00000000E+00  1.00000000E+00  0.00000000E+00  0.00000000E+00
  0.00000000E+00  0.00000000E+00  1.00000000E+00  0.00000000E+00  0.00000000E+00
  0.00000000E+00  0.00000000E+00  1.00000000E+00  0.00000000E+00  0.00000000E+00
  0.00000000E+00  0.00000000E+00  1.00000000E+00  0.00000000E+00  0.00000000E+00
  0.00000000E+00  0.00000000E+00  1.00000000E+00  0.00000000E+00  0.00000000E+00
  0.00000000E+00  0.00000000E+00  1.00000000E+00  0.00000000E+00  0.00000000E+00
  0.00000000E+00  0.00000000E+00  0.00000000E+00  1.00000000E+00  1.00000000E+00
  0.00000000E+00  1.00000000E+00  0.00000000E+00  0.00000000E+00  0.00000000E+00
  0.00000000E+00  0.00000000E+00  0.00000000E+00  0.00000000E+00  0.00000000E+00
  0.00000000E+00  0.00000000E+00
MxBond                                     I                2
NBond                                      I   N=           5
           1           2           2           2           1
IBond                                      I   N=          10
           2           0           1           3           2           4
           3           5           4           0
RBond                                      R   N=          10
  1.00000000E+00  0.00000000E+00  1.00000000E+00  1.00000000E+00  1.00000000E+00
  1.00000000E+00  1.00000000E+00  2.00000000E+00  2.00000000E+00  0.00000000E+00
Virial Ratio                               R      2.002171169859456E+00
SCF Energy                                 R     -2.795032979554908E+02
MP2 Energy                                 R     -2.804465631808715E+02
Total Energy                               R     -2.804465631808715E+02
Post-SCF wavefunction norm                 R      1.119495409266384E+00
RMS Density                                R      3.515684868917123E-09
Job Status                                 I                1
Nuclear derivative order                   I                0
External E-field                           R   N=          35
  0.00000000E+00  0.00000000E+00  0.00000000E+00  0.00000000E+00  0.00000000E+00
  0.00000000E+00  0.00000000E+00  0.00000000E+00  0.00000000E+00  0.00000000E+00
  0.00000000E+00  0.00000000E+00  0.00000000E+00  0.00000000E+00  0.00000000E+00
  0.00000000E+00  0.00000000E+00  0.00000000E+00  0.00000000E+00  0.00000000E+00
  0.00000000E+00  0.00000000E+00  0.00000000E+00  0.00000000E+00  0.00000000E+00
  0.00000000E+00  0.00000000E+00  0.00000000E+00  0.00000000E+00  0.00000000E+00
  0.00000000E+00  0.00000000E+00  0.00000000E+00  0.00000000E+00  0.00000000E+00
IOpCl                                      I                0
IROHF                                      I                0
Alpha Orbital Energies                     R   N=         207
 -2.06884009E+01 -2.06847407E+01 -2.06586283E+01 -1.58113019E+01 -1.63272567E+00
 -1.49579029E+00 -1.25334284E+00 -9.46648300E-01 -7.74093103E-01 -7.61978930E-01
 -7.14091466E-01 -6.80573218E-01 -6.22484161E-01 -5.88721188E-01 -4.84318560E-01
 -4.70433168E-01  2.99143254E-02  7.49126206E-02  8.57627066E-02  1.01716778E-01
  1.33756958E-01  1.34094454E-01  1.44305451E-01  1.54788711E-01  1.78452185E-01
  1.94050111E-01  2.00204642E-01  2.06374591E-01  2.21155040E-01  2.36328385E-01
  2.37456559E-01  2.66170168E-01  2.94504705E-01  3.04303282E-01  3.10955834E-01
  3.43315000E-01  3.50098924E-01  3.87629958E-01  4.22500571E-01  4.31795660E-01
  5.27122350E-01  5.30601833E-01  5.59058002E-01  5.81876761E-01  6.31471877E-01
  6.37972935E-01  6.71213631E-01  6.85310249E-01  7.06505262E-01  7.11435659E-01
  7.24479157E-01  7.30039214E-01  7.44659944E-01  7.92122319E-01  7.92715809E-01
  8.09978474E-01  8.13678711E-01  8.33404796E-01  8.69116125E-01  9.09276314E-01
  9.22926060E-01  9.27293843E-01  9.57184249E-01  9.79784377E-01  9.85545802E-01
  1.01698663E+00  1.05269636E+00  1.05581809E+00  1.08464378E+00  1.11913831E+00
  1.14221285E+00  1.19016032E+00  1.22227861E+00  1.23424860E+00  1.33964260E+00
  1.35114825E+00  1.38794589E+00  1.45406026E+00  1.48832830E+00  1.51031952E+00
  1.53831038E+00  1.56689578E+00  1.57950418E+00  1.61405634E+00  1.66656134E+00
  1.67028440E+00  1.70292127E+00  1.79368996E+00  1.83035069E+00  1.83506988E+00
  1.88116438E+00  1.90974906E+00  1.95338815E+00  1.99493195E+00  2.00578740E+00
  2.07832623E+00  2.12131717E+00  2.13309769E+00  2.15107429E+00  2.22500767E+00
  2.26531210E+00  2.26580577E+00  2.29056304E+00  2.31562124E+00  2.34743608E+00
  2.38709934E+00  2.42685210E+00  2.43137567E+00  2.45450171E+00  2.46423210E+00
  2.47841844E+00  2.50330024E+00  2.59099691E+00  2.59886474E+00  2.62294312E+00
  2.62893477E+00  2.63608487E+00  2.67093368E+00  2.76165087E+00  2.82953568E+00
  2.85972587E+00  2.88935476E+00  2.89709336E+00  2.92826253E+00  2.96075534E+00
  3.02755399E+00  3.06648987E+00  3.12525033E+00  3.20564475E+00  3.22955755E+00
  3.31876379E+00  3.34338638E+00  3.52161602E+00  3.64432441E+00  3.83980074E+00
  3.84765254E+00  4.15005001E+00  4.16465116E+00  4.18553917E+00  4.28281572E+00
  4.35298637E+00  4.39494834E+00  4.46618477E+00  4.52153074E+00  4.67497641E+00
  4.71262241E+00  4.81019818E+00  4.82699916E+00  4.83195239E+00  4.89526779E+00
  5.02161288E+00  5.07850313E+00  5.10763310E+00  5.13905318E+00  5.18226092E+00
  5.24642790E+00  5.27308538E+00  5.30690780E+00  5.33139785E+00  5.36624031E+00
  5.60835434E+00  5.69131491E+00  5.77999674E+00  5.83380830E+00  5.95471646E+00
  6.17145973E+00  6.31081155E+00  6.33943969E+00  6.39600520E+00  6.49363085E+00
  6.50559470E+00  6.61533759E+00  6.66942826E+00  6.70392758E+00  6.75952799E+00
  6.76535334E+00  6.83917405E+00  6.90222084E+00  7.01710112E+00  7.05893651E+00
  7.05964443E+00  7.09174509E+00  7.12980605E+00  7.15261949E+00  7.18314063E+00
  7.23285801E+00  7.24406038E+00  7.31242042E+00  7.34462035E+00  7.35538876E+00
  7.41102358E+00  7.43338243E+00  7.48594795E+00  7.61033464E+00  7.63324490E+00
  7.64240033E+00  7.66922312E+00  7.79834304E+00  7.90439012E+00  8.09778952E+00
  8.31909588E+00  8.41054644E+00  8.54690754E+00  1.34101159E+01  1.44773450E+01
  1.51667391E+01  1.64809739E+01
Alpha MO coefficients                      R   N=       42849
  9.23606868E-05 -6.27496753E-04 -7.28686130E-04 -3.74007813E-06 -2.14177653E-05
 -2.73541800E-05  0.00000000E+00 -4.31004366E-05  5.82783210E-05  0.00000000E+00
  8.89965623E-05  3.71825116E-05  0.00000000E+00  3.19367639E-05  0.00000000E+00
  0.00000000E+00 -4.98448213E-05  2.10860519E-05 -4.02339283E-06  0.00000000E+00
  0.00000000E+00 -1.38582527E-04  1.17896607E-04  4.75609894E-03 -2.83295747E-04
  2.21982087E-05  1.54485784E-03  1.82572175E-03  1.06178506E-04  7.37886413E-06
  0.00000000E+00 -6.17185457E-04 -3.39914029E-05  0.00000000E+00 -1.10097426E-03
  7.83579590E-04  0.00000000E+00 -4.04476822E-04  6.24095475E-05  0.00000000E+00
  2.88691207E-05  0.00000000E+00  0.00000000E+00 -5.42868297E-05  6.35813266E-06
 -3.78150736E-04  0.00000000E+00  0.00000000E+00  7.41522089E-04 -3.86849803E-05
 -4.46828123E-04  0.00000000E+00  0.00000000E+00  2.45464792E-04 -1.27195396E-05
  0.00000000E+00  8.01656607E-05  1.23971134E-05  0.00000000E+00  0.00000000E+00
 -1.09762790E-04 -2.00548052E-06  0.00000000E+00  2.55529879E-04 -2.80989927E-05
  0.00000000E+00  0.00000000E+00 -3.52543312E-04  5.44227155E-05  9.76898978E-01
 -9.21842116E-03  4.33226845E-02  2.07059118E-03 -9.05732725E-04  1.49067632E-03
 -1.34454675E-03  0.00000000E+00 -1.43419185E-03  1.37297537E-03  0.00000000E+00
  8.18059598E-05 -1.16216592E-03  0.00000000E+00 -1.33250658E-04 -1.22542583E-05
  0.00000000E+00  4.59981061E-05  0.00000000E+00  0.00000000E+00 -3.58191783E-05
  2.22240309E-05  7.44920789E-04  0.00000000E+00  0.00000000E+00 -2.41263768E-04
 -3.87088975E-04 -3.59760250E-04  0.00000000E+00  0.00000000E+00 -3.12432747E-04
 -3.69224431E-04  0.00000000E+00  4.74530615E-05 -4.84856346E-05  0.00000000E+00
  0.00000000E+00 -3.90052968E-05 -1.49359837E-05  0.00000000E+00  2.33122482E-05
  2.14442828E-05  0.00000000E+00  0.00000000E+00 -3.06956692E-04 -1.35191882E-04
  3.72478322E-05  3.54781323E-05 -2.64147969E-04 -7.32752214E-04 -1.64997116E-04
 -2.63984780E-05 -9.61839035E-05  0.00000000E+00  2.80332388E-04  7.04482471E-04
  0.00000000E+00 -8.50184163E-04 -5.05907625E-04  0.00000000E+00 -1.26884710E-04
 -3.20597785E-05  0.00000000E+00 -1.79071373E-05  0.00000000E+00  0.00000000E+00
 -3.06442205E-05  1.52672560E-05 -3.24904023E-04  0.00000000E+00  0.00000000E+00
 -8.23645108E-04  1.31058531E-04 -3.29456743E-05  0.00000000E+00  0.00000000E+00
  1.03062416E-04 -1.17552696E-04  0.00000000E+00 -2.06181189E-05 -1.19469122E-04
  0.00000000E+00  0.00000000E+00 -6.36131465E-05 -1.35558101E-04  0.00000000E+00
  3.31793515E-06 -1.50318251E-04  0.00000000E+00  0.00000000E+00  4.26698954E-05
 -4.17078445E-04 -4.71689368E-03  1.43888793E-04 -2.17915014E-04 -2.49708998E-04
  1.52162728E-04 -1.30206276E-05 -2.83094640E-05  0.00000000E+00  7.62985471E-05
  1.64341006E-04  0.00000000E+00  2.48310508E-04  2.10002147E-04  0.00000000E+00
  1.31079827E-04  2.67297379E-05  0.00000000E+00 -2.63288822E-06  0.00000000E+00
  0.00000000E+00 -1.88026510E-05  1.60161090E-06  3.56278875E-07  0.00000000E+00
  0.00000000E+00  8.64380273E-05  8.51639615E-05 -1.03494437E-04  0.00000000E+00
  0.00000000E+00  1.70705679E-04  1.66357017E-04  0.00000000E+00  1.57212332E-05
 -3.00407196E-06  0.00000000E+00  0.00000000E+00 -3.19267462E-06 -1.23191418E-05
  0.00000000E+00 -3.41832427E-05  4.56291983E-05  0.00000000E+00  0.00000000E+00
  8.51209775E-05  8.88261839E-05  4.03606647E-05 -9.81002940E-04 -4.72617076E-04
 -8.36968059E-06 -2.17847527E-05  1.53252163E-05  0.00000000E+00  3.73954479E-06
  2.70810794E-04  0.00000000E+00 -3.83798475E-05  1.29693153E-04  0.00000000E+00
  2.59413513E-05  0.00000000E+00  0.00000000E+00  1.19415751E-05  1.02623327E-05
 -2.77477943E-05  0.00000000E+00  0.00000000E+00  1.19645012E-05  3.30529922E-05
  1.17653400E-04  8.38803639E-05 -2.83474113E-05  7.55753119E-04  6.44647128E-04
  1.11229789E-05  2.13603324E-06  0.00000000E+00 -7.82303301E-05  1.70350682E-05
  0.00000000E+00  3.19697355E-04  9.03401750E-04  0.00000000E+00 -1.21918295E-06
  7.53211219E-05  0.00000000E+00 -2.34665163E-06  0.00000000E+00  0.00000000E+00
 -6.33922787E-07 -5.50161479E-06 -3.65835578E-05  0.00000000E+00  0.00000000E+00
 -1.26998136E-05  7.90939832E-05 -2.65679920E-05  0.00000000E+00  0.00000000E+00
 -2.65087993E-04 -1.68108394E-04  0.00000000E+00  9.20736806E-06  5.72017411E-06
  0.00000000E+00  0.00000000E+00  1.52503612E-06 -1.81169945E-05  0.00000000E+00
 -3.79638793E-05 -3.70461428E-05  0.00000000E+00  0.00000000E+00 -7.68377005E-05
  2.21414284E-05  4.75615919E-03  1.76449220E-05  1.87778457E-04 -7.13264250E-05
 -4.60852972E-04  9.57491713E-06  1.29296968E-05  0.00000000E+00 -6.12495442E-05
 -4.98211918E-05  0.00000000E+00  2.44278566E-04 -2.18040152E-04  0.00000000E+00
 -1.81038728E-04 -6.32679830E-05  0.00000000E+00 -8.61468241E-06  0.00000000E+00
  0.00000000E+00  2.37034306E-05  2.18425931E-05  7.50877318E-06  0.00000000E+00
  0.00000000E+00 -1.25347036E-04 -6.03224221E-05 -6.32561770E-06  0.00000000E+00
  0.00000000E+00 -2.31620643E-04 -2.28539287E-04  0.00000000E+00  2.94685648E-06
 -1.13108027E-06  0.00000000E+00  0.00000000E+00  1.37992566E-06 -1.12706247E-05
  0.00000000E+00 -4.62302839E-05  6.99371028E-06  0.00000000E+00  0.00000000E+00
 -8.66136250E-05  1.86772837E-04  2.60811255E-04  1.47770050E-03 -3.09513429E-05
 -1.77719145E-03  3.33188074E-04 -1.71486056E-04 -4.21890753E-06  0.00000000E+00
 -2.04785590E-03 -3.79921451E-04  0.00000000E+00  1.15659354E-03  7.65385028E-04
  0.00000000E+00 -1.59837337E-04  5.63932693E-05  0.00000000E+00 -1.19913521E-04
  0.00000000E+00  0.00000000E+00  2.39747205E-04  9.24308043E-05 -4.11208227E-04
  0.00000000E+00  0.00000000E+00  8.37999399E-04 -1.07886222E-04  2.79531298E-05
  0.00000000E+00  0.00000000E+00 -3.71559312E-04 -1.34066625E-04  0.00000000E+00
 -1.87413861E-05  1.17213850E-05  0.00000000E+00  0.00000000E+00  3.97808850E-05
  2.43338175E-05  0.00000000E+00  1.59516635E-04 -7.17928171E-05  0.00000000E+00
  0.00000000E+00 -2.14925153E-04  3.95098788E-05  9.76623884E-01 -9.83108870E-03
  4.35978193E-02  4.72188149E-03 -3.67440284E-04  2.16028727E-03  4.75113987E-04
  0.00000000E+00 -2.33279930E-03 -5.89627444E-04  0.00000000E+00  1.19029187E-03
  6.80906487E-06  0.00000000E+00  1.29701732E-05 -3.92091775E-05  0.00000000E+00
 -2.40048318E-04  0.00000000E+00  0.00000000E+00  1.16112986E-04  3.54399985E-05
  3.82747907E-04  0.00000000E+00  0.00000000E+00 -8.17085612E-04 -4.09115657E-04
 -1.44373664E-04  0.00000000E+00  0.00000000E+00  2.43780184E-04  1.55927903E-05
  0.00000000E+00  4.59558996E-05  1.68128626E-05  0.00000000E+00  0.00000000E+00
 -1.43784410E-05 -9.84035505E-06  0.00000000E+00  1.44943296E-04  9.89229221E-06
  0.00000000E+00  0.00000000E+00 -1.93715651E-04 -1.40882331E-04  4.74894461E-04
  2.06427375E-03  1.18026299E-04  1.44531264E-05 -4.20035283E-05 -2.46730180E-04
  0.00000000E+00  1.06086866E-04 -1.27631570E-03  0.00000000E+00  3.07499954E-04
 -3.40862726E-04  0.00000000E+00 -2.65386904E-06  0.00000000E+00  0.00000000E+00
  7.60782647E-05  1.47131916E-05 -1.60226053E-04  0.00000000E+00  0.00000000E+00
 -5.37290094E-04 -1.91459239E-05  9.76828941E-01 -9.16312846E-03  4.34502001E-02
  1.65023630E-04 -1.14013538E-03 -1.55451780E-03  1.44833346E-03  0.00000000E+00
  1.56776419E-03 -1.29118140E-03  0.00000000E+00 -5.74345350E-04 -8.67682443E-04
  0.00000000E+00  5.64759881E-05 -2.91010073E-05  0.00000000E+00  2.93247799E-05
  0.00000000E+00  0.00000000E+00 -1.17855767E-04 -1.80542951E-06  7.57252901E-04
  0.00000000E+00  0.00000000E+00 -2.02996624E-04 -2.33819256E-04 -2.65899226E-04
  0.00000000E+00  0.00000000E+00  1.70375342E-04  1.27139201E-04  0.00000000E+00
 -6.40496529E-05  1.47626958E-06  0.00000000E+00  0.00000000E+00  1.88783237E-05
  9.66550634E-06  0.00000000E+00 -6.99420698E-07  1.23037159E-04  0.00000000E+00
  0.00000000E+00  2.58411274E-04  8.87071472E-05 -4.84853134E-03 -2.09682874E-04