title                                                                   
SP        RMP2-FC                                                     Aug-CC-pVTZ         
Number of atoms                            I                5
Info1-9                                    I   N=           9
          33          24           0           0           0         110
           1           2           1
Full Title                                 C   N=           1
title       
Route                                      C   N=           4
#p SP mp2/aug-cc-pvtz density=current           
Charge                                     I                0
Multiplicity                               I                1
Number of electrons                        I               32
Number of alpha electrons                  I               16
Number of beta electrons                   I               16
Number of basis functions                  I              207
Number of independent functions            I              207
Number of point charges in /Mol/           I                0
Number of translation vectors              I                0
Atomic numbers                             I   N=           5
           1           8           8           7           8
Nuclear charges                            R   N=           5
  1.00000000E+00  8.00000000E+00  8.00000000E+00  7.00000000E+00  8.00000000E+00
Current cartesian coordinates              R   N=          15
  3.00041492E+00  3.17526717E+00 -2.68152187E-33  2.74793877E+00  1.36165827E+00
 -3.63100791E-33  2.23045871E-17  1.27206169E+00  7.92848788E-34 -4.99059841E-01
 -1.43909067E+00 -3.11820776E-32 -2.68631327E+00 -1.77142401E+00  5.88662875E-32
Number of symbols in /Mol/                 I                0
Force Field                                I                0
Atom Types                                 C   N=           5
                                                            
Int Atom Types                             I   N=           5
           0           0           0           0           0
MM charges                                 R   N=           5
  0.00000000E+00  0.00000000E+00  0.00000000E+00  0.00000000E+00  0.00000000E+00
Integer atomic weights                     I   N=           5
           1          16          16          14          16
Real atomic weights                        R   N=           5
  1.00782504E+00  1.59949146E+01  1.59949146E+01  1.40030740E+01  1.59949146E+01
Atom fragment info                         I   N=           5
           0           0           0           0           0
Atom residue num                           I   N=           5
           0           0           0           0           0
Nuclear spins                              I   N=           5
           1           0           0           2           0
Nuclear ZEff                               R   N=           5
 -1.00000000E+00 -5.60000000E+00 -5.60000000E+00 -4.55000000E+00 -5.60000000E+00
Nuclear ZNuc                               R   N=           5
  1.00000000E+00  8.00000000E+00  8.00000000E+00  7.00000000E+00  8.00000000E+00
Nuclear QMom                               R   N=           5
  0.00000000E+00  0.00000000E+00  0.00000000E+00  2.04400000E+00  0.00000000E+00
Nuclear GFac                               R   N=           5
  2.79284600E+00  0.00000000E+00  0.00000000E+00  4.03761000E-01  0.00000000E+00
MicOpt                                     I   N=           5
          -1          -1          -1          -1          -1
Number of residues                         I                0
Number of secondary structures             I                0
SymInf integers                            I   N=          26
           1           2           1           1           1           1
           1          -1           0           0           0           0
           0           0           0           0           0           0
           0           0           0           0           0           0
           0           0
RotTr to input orientation                 R   N=          12
 -9.90448615E-01 -9.86338912E-17 -1.37882346E-01  1.37882346E-01 -7.25875564E-17
 -9.90448615E-01  8.76832583E-17 -1.00000000E+00  8.54941170E-17  2.53394351E+00
  0.00000000E+00  3.55864322E+00
Number of contracted shells                I               65
Number of primitive shells                 I              119
Pure/Cartesian d shells                    I                0
Pure/Cartesian f shells                    I                0
Highest angular momentum                   I                3
Largest degree of contraction              I                7
Shell types                                I   N=          65
           0           0           0           0           1           1
           1          -2          -2           0           0           0
           0           0           1           1           1           1
          -2          -2          -2          -3          -3           0
           0           0           0           0           1           1
           1           1          -2          -2          -2          -3
          -3           0           0           0           0           0
           1           1           1           1          -2          -2
          -2          -3          -3           0           0           0
           0           0           1           1           1           1
          -2          -2          -2          -3          -3
Number of primitives per shell             I   N=          65
           3           1           1           1           1           1
           1           1           1           7           6           1
           1           1           3           1           1           1
           1           1           1           1           1           7
           6           1           1           1           3           1
           1           1           1           1           1           1
           1           7           6           1           1           1
           3           1           1           1           1           1
           1           1           1           7           6           1
           1           1           3           1           1           1
           1           1           1           1           1
Shell to atom map                          I   N=          65
           1           1           1           1           1           1
           1           1           1           2           2           2
           2           2           2           2           2           2
           2           2           2           2           2           3
           3           3           3           3           3           3
           3           3           3           3           3           3
           3           4           4           4           4           4
           4           4           4           4           4           4
           4           4           4           5           5           5
           5           5           5           5           5           5
           5           5           5           5           5
Primitive exponents                        R   N=         119
  3.38700000E+01  5.09500000E+00  1.15900000E+00  3.25800000E-01  1.02700000E-01
  2.52600000E-02  1.40700000E+00  3.88000000E-01  1.02000000E-01  1.05700000E+00
  2.47000000E-01  1.53300000E+04  2.29900000E+03  5.22400000E+02  1.47300000E+02
  4.75500000E+01  1.67600000E+01  6.20700000E+00  5.22400000E+02  1.47300000E+02
  4.75500000E+01  1.67600000E+01  6.20700000E+00  6.88200000E-01  1.75200000E+00
  2.38400000E-01  7.37600000E-02  3.44600000E+01  7.74900000E+00  2.28000000E+00
  7.15600000E-01  2.14000000E-01  5.97400000E-02  2.31400000E+00  6.45000000E-01
  2.14000000E-01  1.42800000E+00  5.00000000E-01  1.53300000E+04  2.29900000E+03
  5.22400000E+02  1.47300000E+02  4.75500000E+01  1.67600000E+01  6.20700000E+00
  5.22400000E+02  1.47300000E+02  4.75500000E+01  1.67600000E+01  6.20700000E+00
  6.88200000E-01  1.75200000E+00  2.38400000E-01  7.37600000E-02  3.44600000E+01
  7.74900000E+00  2.28000000E+00  7.15600000E-01  2.14000000E-01  5.97400000E-02
  2.31400000E+00  6.45000000E-01  2.14000000E-01  1.42800000E+00  5.00000000E-01
  1.14200000E+04  1.71200000E+03  3.89300000E+02  1.10000000E+02  3.55700000E+01
  1.25400000E+01  4.64400000E+00  3.89300000E+02  1.10000000E+02  3.55700000E+01
  1.25400000E+01  4.64400000E+00  5.11800000E-01  1.29300000E+00  1.78700000E-01
  5.76000000E-02  2.66300000E+01  5.94800000E+00  1.74200000E+00  5.55000000E-01
  1.72500000E-01  4.91000000E-02  1.65400000E+00  4.69000000E-01  1.51000000E-01
  1.09300000E+00  3.64000000E-01  1.53300000E+04  2.29900000E+03  5.22400000E+02
  1.47300000E+02  4.75500000E+01  1.67600000E+01  6.20700000E+00  5.22400000E+02
  1.47300000E+02  4.75500000E+01  1.67600000E+01  6.20700000E+00  6.88200000E-01
  1.75200000E+00  2.38400000E-01  7.37600000E-02  3.44600000E+01  7.74900000E+00
  2.28000000E+00  7.15600000E-01  2.14000000E-01  5.97400000E-02  2.31400000E+00
  6.45000000E-01  2.14000000E-01  1.42800000E+00  5.00000000E-01
Contraction coefficients                   R   N=         119
  2.54948632E-02  1.90362766E-01  8.52162022E-01  1.00000000E+00  1.00000000E+00
  1.00000000E+00  1.00000000E+00  1.00000000E+00  1.00000000E+00  1.00000000E+00
  1.00000000E+00  5.19808943E-04  4.02025621E-03  2.07128267E-02  8.10105536E-02
  2.35962985E-01  4.42653446E-01  3.57064423E-01 -4.42115008E-05 -1.22591041E-03
 -1.05517725E-02 -6.74452633E-02 -1.71198607E-01  1.07329856E+00  1.00000000E+00
  1.00000000E+00  1.00000000E+00  4.11634896E-02  2.57762836E-01  8.02419274E-01
  1.00000000E+00  1.00000000E+00  1.00000000E+00  1.00000000E+00  1.00000000E+00
  1.00000000E+00  1.00000000E+00  1.00000000E+00  5.19808943E-04  4.02025621E-03
  2.07128267E-02  8.10105536E-02  2.35962985E-01  4.42653446E-01  3.57064423E-01
 -4.42115008E-05 -1.22591041E-03 -1.05517725E-02 -6.74452633E-02 -1.71198607E-01
  1.07329856E+00  1.00000000E+00  1.00000000E+00  1.00000000E+00  4.11634896E-02
  2.57762836E-01  8.02419274E-01  1.00000000E+00  1.00000000E+00  1.00000000E+00
  1.00000000E+00  1.00000000E+00  1.00000000E+00  1.00000000E+00  1.00000000E+00
  5.34563860E-04  4.13435660E-03  2.12335358E-02  8.25006224E-02  2.38138871E-01
  4.42551547E-01  3.53757422E-01 -4.89867350E-05 -1.19527323E-03 -1.03490714E-02
 -6.48680190E-02 -1.71552477E-01  1.07289568E+00  1.00000000E+00  1.00000000E+00
  1.00000000E+00  3.98072123E-02  2.49002660E-01  8.10479727E-01  1.00000000E+00
  1.00000000E+00  1.00000000E+00  1.00000000E+00  1.00000000E+00  1.00000000E+00
  1.00000000E+00  1.00000000E+00  5.19808943E-04  4.02025621E-03  2.07128267E-02
  8.10105536E-02  2.35962985E-01  4.42653446E-01  3.57064423E-01 -4.42115008E-05
 -1.22591041E-03 -1.05517725E-02 -6.74452633E-02 -1.71198607E-01  1.07329856E+00
  1.00000000E+00  1.00000000E+00  1.00000000E+00  4.11634896E-02  2.57762836E-01
  8.02419274E-01  1.00000000E+00  1.00000000E+00  1.00000000E+00  1.00000000E+00
  1.00000000E+00  1.00000000E+00  1.00000000E+00  1.00000000E+00
Coordinates of each shell                  R   N=         195
  3.00041492E+00  3.17526717E+00  2.53721797E-32  3.00041492E+00  3.17526717E+00
  2.53721797E-32  3.00041492E+00  3.17526717E+00  2.53721797E-32  3.00041492E+00
  3.17526717E+00  2.53721797E-32  3.00041492E+00  3.17526717E+00  2.53721797E-32
  3.00041492E+00  3.17526717E+00  2.53721797E-32  3.00041492E+00  3.17526717E+00
  2.53721797E-32  3.00041492E+00  3.17526717E+00  2.53721797E-32  3.00041492E+00
  3.17526717E+00  2.53721797E-32  2.74793877E+00  1.36165827E+00  4.35815336E-33
  2.74793877E+00  1.36165827E+00  4.35815336E-33  2.74793877E+00  1.36165827E+00
  4.35815336E-33  2.74793877E+00  1.36165827E+00  4.35815336E-33  2.74793877E+00
  1.36165827E+00  4.35815336E-33  2.74793877E+00  1.36165827E+00  4.35815336E-33
  2.74793877E+00  1.36165827E+00  4.35815336E-33  2.74793877E+00  1.36165827E+00
  4.35815336E-33  2.74793877E+00  1.36165827E+00  4.35815336E-33  2.74793877E+00
  1.36165827E+00  4.35815336E-33  2.74793877E+00  1.36165827E+00  4.35815336E-33
  2.74793877E+00  1.36165827E+00  4.35815336E-33  2.74793877E+00  1.36165827E+00
  4.35815336E-33  2.74793877E+00  1.36165827E+00  4.35815336E-33 -2.11677062E-17
  1.27206169E+00  1.55296111E-32 -2.11677062E-17  1.27206169E+00  1.55296111E-32
 -2.11677062E-17  1.27206169E+00  1.55296111E-32 -2.11677062E-17  1.27206169E+00
  1.55296111E-32 -2.11677062E-17  1.27206169E+00  1.55296111E-32 -2.11677062E-17
  1.27206169E+00  1.55296111E-32 -2.11677062E-17  1.27206169E+00  1.55296111E-32
 -2.11677062E-17  1.27206169E+00  1.55296111E-32 -2.11677062E-17  1.27206169E+00
  1.55296111E-32 -2.11677062E-17  1.27206169E+00  1.55296111E-32 -2.11677062E-17
  1.27206169E+00  1.55296111E-32 -2.11677062E-17  1.27206169E+00  1.55296111E-32
 -2.11677062E-17  1.27206169E+00  1.55296111E-32 -2.11677062E-17  1.27206169E+00
  1.55296111E-32 -4.99059841E-01 -1.43909067E+00 -1.53412120E-32 -4.99059841E-01
 -1.43909067E+00 -1.53412120E-32 -4.99059841E-01 -1.43909067E+00 -1.53412120E-32
 -4.99059841E-01 -1.43909067E+00 -1.53412120E-32 -4.99059841E-01 -1.43909067E+00
 -1.53412120E-32 -4.99059841E-01 -1.43909067E+00 -1.53412120E-32 -4.99059841E-01
 -1.43909067E+00 -1.53412120E-32 -4.99059841E-01 -1.43909067E+00 -1.53412120E-32
 -4.99059841E-01 -1.43909067E+00 -1.53412120E-32 -4.99059841E-01 -1.43909067E+00
 -1.53412120E-32 -4.99059841E-01 -1.43909067E+00 -1.53412120E-32 -4.99059841E-01
 -1.43909067E+00 -1.53412120E-32 -4.99059841E-01 -1.43909067E+00 -1.53412120E-32
 -4.99059841E-01 -1.43909067E+00 -1.53412120E-32 -2.68631327E+00 -1.77142401E+00
 -9.63572639E-33 -2.68631327E+00 -1.77142401E+00 -9.63572639E-33 -2.68631327E+00
 -1.77142401E+00 -9.63572639E-33 -2.68631327E+00 -1.77142401E+00 -9.63572639E-33
 -2.68631327E+00 -1.77142401E+00 -9.63572639E-33 -2.68631327E+00 -1.77142401E+00
 -9.63572639E-33 -2.68631327E+00 -1.77142401E+00 -9.63572639E-33 -2.68631327E+00
 -1.77142401E+00 -9.63572639E-33 -2.68631327E+00 -1.77142401E+00 -9.63572639E-33
 -2.68631327E+00 -1.77142401E+00 -9.63572639E-33 -2.68631327E+00 -1.77142401E+00
 -9.63572639E-33 -2.68631327E+00 -1.77142401E+00 -9.63572639E-33 -2.68631327E+00
 -1.77142401E+00 -9.63572639E-33 -2.68631327E+00 -1.77142401E+00 -9.63572639E-33
Num ILSW                                   I              100
ILSW                                       I   N=         100
           0           0           0           0           2           0
           0           0           0           0           0          -1
           5           0           0           0           0           0
           0           0           0           0           0           0
           1           0           0           0           0           0
           0           0      100000           0          -1           0
           0           0           0           0           0           0
           0           0           0           1           0           0
           0 -2000000000           1           0           0           0
           0           0           4          52           0           0
           0           0           0           0           0           0
           0           0           0           5           0           1
           0           0           0           0           0           0
           0           0           0           0           0           0
           0           0           0           0           0           0
           0           0           0           0           0           0
           0           0           0           0
Num RLSW                                   I               52
RLSW                                       R   N=          52
  1.00000000E+00  1.00000000E+00  1.00000000E+00  1.00000000E+00  1.00000000E+00
  0.00000000E+00  0.00000000E+00  1.00000000E+00  0.00000000E+00  0.00000000E+00
  0.00000000E+00  0.00000000E+00  1.00000000E+00  0.00000000E+00  0.00000000E+00
  0.00000000E+00  0.00000000E+00  1.00000000E+00  0.00000000E+00  0.00000000E+00
  0.00000000E+00  0.00000000E+00  1.00000000E+00  0.00000000E+00  0.00000000E+00
  0.00000000E+00  0.00000000E+00  1.00000000E+00  0.00000000E+00  0.00000000E+00
  0.00000000E+00  0.00000000E+00  1.00000000E+00  0.00000000E+00  0.00000000E+00
  0.00000000E+00  0.00000000E+00  0.00000000E+00  1.00000000E+00  1.00000000E+00
  0.00000000E+00  1.00000000E+00  0.00000000E+00  0.00000000E+00  0.00000000E+00
  0.00000000E+00  0.00000000E+00  0.00000000E+00  0.00000000E+00  0.00000000E+00
  0.00000000E+00  0.00000000E+00
MxBond                                     I                2
NBond                                      I   N=           5
           1           2           2           2           1
IBond                                      I   N=          10
           2           0           1           3           2           4
           3           5           4           0
RBond                                      R   N=          10
  1.00000000E+00  0.00000000E+00  1.00000000E+00  1.00000000E+00  1.00000000E+00
  1.00000000E+00  1.00000000E+00  2.00000000E+00  2.00000000E+00  0.00000000E+00
Virial Ratio                               R      2.002382226817902E+00
SCF Energy                                 R     -2.795018028057879E+02
MP2 Energy                                 R     -2.804465721432351E+02
Total Energy                               R     -2.804465721432351E+02
Post-SCF wavefunction norm                 R      1.120169306458634E+00
RMS Density                                R      3.814538886374343E-09
Job Status                                 I                1
Nuclear derivative order                   I                0
External E-field                           R   N=          35
  0.00000000E+00  0.00000000E+00  0.00000000E+00  0.00000000E+00  0.00000000E+00
  0.00000000E+00  0.00000000E+00  0.00000000E+00  0.00000000E+00  0.00000000E+00
  0.00000000E+00  0.00000000E+00  0.00000000E+00  0.00000000E+00  0.00000000E+00
  0.00000000E+00  0.00000000E+00  0.00000000E+00  0.00000000E+00  0.00000000E+00
  0.00000000E+00  0.00000000E+00  0.00000000E+00  0.00000000E+00  0.00000000E+00
  0.00000000E+00  0.00000000E+00  0.00000000E+00  0.00000000E+00  0.00000000E+00
  0.00000000E+00  0.00000000E+00  0.00000000E+00  0.00000000E+00  0.00000000E+00
IOpCl                                      I                0
IROHF                                      I                0
Alpha Orbital Energies                     R   N=         207
 -2.06911895E+01 -2.06843758E+01 -2.06590271E+01 -1.58129211E+01 -1.62397328E+00
 -1.49441688E+00 -1.25471307E+00 -9.48007983E-01 -7.71768771E-01 -7.60580813E-01
 -7.11582620E-01 -6.79893962E-01 -6.20066058E-01 -5.87315148E-01 -4.84948390E-01
 -4.72500473E-01  2.93925254E-02  7.17349832E-02  8.59505451E-02  1.01791373E-01
  1.33732744E-01  1.34063012E-01  1.44108958E-01  1.54421778E-01  1.78325640E-01
  1.94387696E-01  1.99995530E-01  2.06251665E-01  2.20893902E-01  2.35395724E-01
  2.37400203E-01  2.67038390E-01  2.93427034E-01  3.04206248E-01  3.09822020E-01
  3.43620652E-01  3.49311224E-01  3.87138335E-01  4.20250786E-01  4.32419756E-01
  5.26963021E-01  5.29128201E-01  5.58892133E-01  5.82218870E-01  6.25724718E-01
  6.38497921E-01  6.74229202E-01  6.84029189E-01  7.06207953E-01  7.12148039E-01
  7.20130418E-01  7.30516404E-01  7.45100808E-01  7.89341474E-01  7.89487326E-01
  8.09111957E-01  8.13371930E-01  8.31912159E-01  8.68880868E-01  9.07210315E-01
  9.23544371E-01  9.25257168E-01  9.59187774E-01  9.78300220E-01  9.83024849E-01
  1.01530981E+00  1.05256407E+00  1.05530262E+00  1.08198660E+00  1.11740888E+00
  1.13816645E+00  1.18886520E+00  1.22090378E+00  1.23084339E+00  1.33827419E+00
  1.34749493E+00  1.38751980E+00  1.45108452E+00  1.48873610E+00  1.51295151E+00
  1.53893875E+00  1.56725577E+00  1.57997586E+00  1.61625682E+00  1.66486668E+00
  1.66926633E+00  1.70361511E+00  1.78774729E+00  1.83204915E+00  1.83320580E+00
  1.87939799E+00  1.90893678E+00  1.95752464E+00  1.99025089E+00  2.00764784E+00
  2.07591242E+00  2.11565055E+00  2.13195555E+00  2.15045759E+00  2.22195108E+00
  2.26531936E+00  2.26692430E+00  2.28779678E+00  2.31489588E+00  2.34661701E+00
  2.38471083E+00  2.42056233E+00  2.42359067E+00  2.45508032E+00  2.46337732E+00
  2.47392657E+00  2.50374454E+00  2.58861191E+00  2.59386631E+00  2.61634992E+00
  2.62903805E+00  2.63376029E+00  2.67017797E+00  2.75646244E+00  2.82074724E+00
  2.86648782E+00  2.89035691E+00  2.89459982E+00  2.92080940E+00  2.96204441E+00
  3.02741598E+00  3.06744730E+00  3.12337183E+00  3.19862699E+00  3.23073494E+00
  3.31939071E+00  3.34043263E+00  3.51226458E+00  3.65435457E+00  3.83977180E+00
  3.84915930E+00  4.15326780E+00  4.15526932E+00  4.18412841E+00  4.25614409E+00
  4.36302045E+00  4.38995379E+00  4.46535371E+00  4.50876295E+00  4.66503865E+00
  4.68689173E+00  4.80681162E+00  4.82399876E+00  4.83339326E+00  4.89596097E+00
  5.02146576E+00  5.07798008E+00  5.10365312E+00  5.14970573E+00  5.18948373E+00
  5.23379986E+00  5.27422975E+00  5.31156486E+00  5.33223201E+00  5.35296186E+00
  5.61098695E+00  5.67376699E+00  5.77526967E+00  5.81279624E+00  5.95685535E+00
  6.16310230E+00  6.30571327E+00  6.34234763E+00  6.39773928E+00  6.49339250E+00
  6.50577241E+00  6.61190881E+00  6.66704059E+00  6.69641498E+00  6.75352944E+00
  6.76589003E+00  6.83019256E+00  6.89773499E+00  6.99797779E+00  7.05764225E+00
  7.06426703E+00  7.09159114E+00  7.12329613E+00  7.15796412E+00  7.18103034E+00
  7.22359250E+00  7.24174267E+00  7.31130593E+00  7.32583544E+00  7.34682581E+00
  7.39840065E+00  7.41276181E+00  7.48412589E+00  7.60898391E+00  7.61317019E+00
  7.62786772E+00  7.66575086E+00  7.78369676E+00  7.88637801E+00  8.09090025E+00
  8.30939230E+00  8.42483811E+00  8.54590329E+00  1.33971435E+01  1.43981931E+01
  1.51337362E+01  1.61507323E+01
Alpha MO coefficients                      R   N=       42849
  9.16923427E-05 -7.66357700E-04 -8.11451830E-04 -6.30920523E-06 -3.75231412E-05
 -2.20846158E-05  0.00000000E+00 -2.92747057E-05  1.36934833E-04  0.00000000E+00
  1.03759899E-04  6.99725760E-05  0.00000000E+00  3.53360357E-05  0.00000000E+00
  0.00000000E+00 -3.56166233E-05  2.64957651E-05  2.51432709E-07  0.00000000E+00
  0.00000000E+00 -1.16104828E-04  1.08958691E-04  4.40261449E-03 -2.69242702E-04
  2.07950952E-06  1.75645138E-03  1.94154160E-03  1.06858712E-04  4.43037799E-06
  0.00000000E+00 -6.15907677E-04  1.01533718E-06  0.00000000E+00 -1.12621178E-03
  8.88334840E-04  0.00000000E+00 -4.19326085E-04  6.80744518E-05  0.00000000E+00
  2.91530236E-05  0.00000000E+00  0.00000000E+00 -5.60089285E-05  4.65199747E-06
 -3.89278581E-04  0.00000000E+00  0.00000000E+00  7.35830002E-04 -2.69763027E-05
 -4.58470091E-04  0.00000000E+00  0.00000000E+00  2.47336915E-04 -2.36273276E-05
  0.00000000E+00  8.04602546E-05  1.14651202E-05  0.00000000E+00  0.00000000E+00
 -1.10074032E-04 -4.84756185E-06  0.00000000E+00  2.53649251E-04 -2.80321336E-05
  0.00000000E+00  0.00000000E+00 -3.62832493E-04  5.91798737E-05  9.76914939E-01
 -9.21285084E-03  4.33146085E-02  2.03881198E-03 -9.73977081E-04  1.50303869E-03
 -1.35750253E-03  0.00000000E+00 -1.44679993E-03  1.38611228E-03  0.00000000E+00
  4.00028522E-05 -1.22020096E-03  0.00000000E+00 -1.49026437E-04 -1.82283948E-05
  0.00000000E+00  4.74732220E-05  0.00000000E+00  0.00000000E+00 -3.42092590E-05
  1.93922743E-05  7.45347676E-04  0.00000000E+00  0.00000000E+00 -2.43910779E-04
 -3.86669346E-04 -3.45772969E-04  0.00000000E+00  0.00000000E+00 -3.23309442E-04
 -4.05643934E-04  0.00000000E+00  4.78239759E-05 -4.96823046E-05  0.00000000E+00
  0.00000000E+00 -4.00971689E-05 -1.46828297E-05  0.00000000E+00  2.35499942E-05
  2.50587250E-05  0.00000000E+00  0.00000000E+00 -3.06417475E-04 -1.39733343E-04
  3.88280626E-05  4.50663318E-05 -2.62841014E-04 -7.25376677E-04 -1.48274757E-04
 -2.70367038E-05 -9.64219870E-05  0.00000000E+00  2.69364511E-04  7.03176873E-04
  0.00000000E+00 -8.64392209E-04 -5.32728357E-04  0.00000000E+00 -1.32730735E-04
 -3.18298166E-05  0.00000000E+00 -1.82736533E-05  0.00000000E+00  0.00000000E+00
 -2.97442444E-05  1.50843415E-05 -3.25614199E-04  0.00000000E+00  0.00000000E+00
 -8.22962631E-04  1.31412823E-04 -3.60114554E-05  0.00000000E+00  0.00000000E+00
  1.14548756E-04 -1.10058287E-04  0.00000000E+00 -2.07850132E-05 -1.19500198E-04
  0.00000000E+00  0.00000000E+00 -6.33859362E-05 -1.36919625E-04  0.00000000E+00
  2.77142770E-06 -1.50168940E-04  0.00000000E+00  0.00000000E+00  4.39151238E-05
 -4.18518210E-04 -2.47736989E-03  1.20662948E-04 -1.18909393E-04 -2.67030355E-04
  1.25987595E-04 -7.67931248E-06 -2.74021893E-05  0.00000000E+00  6.81587253E-05
  1.61910559E-04  0.00000000E+00  2.29593986E-04  2.24602342E-04  0.00000000E+00
  1.28831655E-04  2.60306019E-05  0.00000000E+00 -3.33245183E-06  0.00000000E+00
  0.00000000E+00 -1.77693313E-05  9.22537809E-07  7.54962419E-07  0.00000000E+00
  0.00000000E+00  7.96554503E-05  8.90091212E-05 -1.03448940E-04  0.00000000E+00
  0.00000000E+00  1.63275603E-04  1.71452359E-04  0.00000000E+00  1.58767197E-05
 -3.54498442E-06  0.00000000E+00  0.00000000E+00 -4.25918559E-06 -1.20649957E-05
  0.00000000E+00 -3.38210361E-05  4.47901421E-05  0.00000000E+00  0.00000000E+00
  8.28757268E-05  9.06671690E-05  3.40297498E-05 -9.85743256E-04 -4.95606644E-04
 -1.18280643E-05 -2.38384859E-05  1.69361921E-05  0.00000000E+00 -2.44786598E-06
  2.70033302E-04  0.00000000E+00 -4.73212924E-05  1.35195307E-04  0.00000000E+00
  2.36408697E-05  0.00000000E+00  0.00000000E+00  1.44271374E-05  1.30353318E-05
 -2.99319791E-05  0.00000000E+00  0.00000000E+00  1.40653985E-05  4.01730273E-05
  1.07646127E-04  8.39060696E-05 -2.88226135E-05  7.42888689E-04  6.62651892E-04
  9.91550192E-06  2.67666165E-06  0.00000000E+00 -7.08384070E-05  1.24521474E-05
  0.00000000E+00  3.86368540E-04  9.03720137E-04  0.00000000E+00  1.13384821E-05
  8.60886486E-05  0.00000000E+00 -2.09820555E-06  0.00000000E+00  0.00000000E+00
 -4.36375833E-07 -6.75429221E-06 -3.61508811E-05  0.00000000E+00  0.00000000E+00
 -1.43152779E-05  9.09774877E-05 -2.20869369E-05  0.00000000E+00  0.00000000E+00
 -2.73190194E-04 -1.39459011E-04  0.00000000E+00  9.57875112E-06  6.12665799E-06
  0.00000000E+00  0.00000000E+00  2.55106155E-06 -1.80097047E-05  0.00000000E+00
 -4.34511261E-05 -3.83600458E-05  0.00000000E+00  0.00000000E+00 -8.36235601E-05
  2.32255377E-05  2.51609089E-03  3.92104927E-05  8.67904660E-05 -3.80357586E-05
 -4.79583757E-04  7.32366842E-06  1.57946717E-05  0.00000000E+00 -6.26751574E-05
 -5.43594566E-05  0.00000000E+00  2.43583873E-04 -1.98088532E-04  0.00000000E+00
 -1.91882326E-04 -6.56395842E-05  0.00000000E+00 -8.53211739E-06  0.00000000E+00
  0.00000000E+00  2.27663165E-05  1.96437582E-05  3.52962316E-06  0.00000000E+00
  0.00000000E+00 -1.19881793E-04 -4.51561854E-05  2.57180396E-07  0.00000000E+00
  0.00000000E+00 -2.24119488E-04 -2.16043650E-04  0.00000000E+00  3.01408435E-06
 -9.42452712E-07  0.00000000E+00  0.00000000E+00  1.37900042E-06 -1.30924776E-05
  0.00000000E+00 -4.49712838E-05  5.51724688E-06  0.00000000E+00  0.00000000E+00
 -7.58937278E-05  1.86427787E-04  2.58772558E-04  1.46585899E-03 -7.78258861E-05
 -1.53256572E-03  4.10735740E-04 -1.44344122E-04  7.08684196E-07  0.00000000E+00
 -2.09213879E-03 -4.01881263E-04  0.00000000E+00  1.01757640E-03  7.48347532E-04
  0.00000000E+00 -1.71296606E-04  5.79849376E-05  0.00000000E+00 -1.23397213E-04
  0.00000000E+00  0.00000000E+00  2.43414023E-04  9.31845240E-05 -4.41758951E-04
  0.00000000E+00  0.00000000E+00  9.01093958E-04 -6.97483841E-05  1.15109306E-05
  0.00000000E+00  0.00000000E+00 -3.33127261E-04 -1.24634643E-04  0.00000000E+00
 -1.13046934E-06  1.55727580E-05  0.00000000E+00  0.00000000E+00  1.88066708E-05
  1.33615245E-05  0.00000000E+00  1.64297227E-04 -7.18831382E-05  0.00000000E+00
  0.00000000E+00 -2.40810732E-04  4.34473913E-05  9.76649889E-01 -9.84771064E-03
  4.35676593E-02  4.48177942E-03 -4.57268552E-04  2.14955753E-03  4.78694026E-04
  0.00000000E+00 -2.38669501E-03 -6.01410000E-04  0.00000000E+00  1.13299436E-03
 -2.64617258E-06  0.00000000E+00  3.23417644E-06 -4.36223720E-05  0.00000000E+00
 -2.32180523E-04  0.00000000E+00  0.00000000E+00  1.02985725E-04  3.12794242E-05
  3.91091703E-04  0.00000000E+00  0.00000000E+00 -8.36060724E-04 -4.16867877E-04
 -1.55162185E-04  0.00000000E+00  0.00000000E+00  2.54249844E-04  1.78750144E-05
  0.00000000E+00  5.24696091E-05  1.76292289E-05  0.00000000E+00  0.00000000E+00
 -2.22276688E-05 -1.32594051E-05  0.00000000E+00  1.37888356E-04  8.89340143E-06
  0.00000000E+00  0.00000000E+00 -1.90949702E-04 -1.39716915E-04  4.81005942E-04
  2.20871415E-03  1.44664364E-04  1.02667774E-05 -4.49361029E-05 -2.44749548E-04
  0.00000000E+00  5.66695916E-05 -1.30500396E-03  0.00000000E+00  2.61817042E-04
 -3.45195192E-04  0.00000000E+00 -1.83288046E-07  0.00000000E+00  0.00000000E+00
  7.64114071E-05  1.91519533E-06 -1.48503998E-04  0.00000000E+00  0.00000000E+00
 -5.36764221E-04  1.70291861E-05  9.76829253E-01 -9.14890460E-03  4.34587826E-02
  1.46201653E-05 -1.07045877E-03 -1.53427512E-03  1.47100427E-03  0.00000000E+00
  1.54187160E-03 -1.29918332E-03  0.00000000E+00 -6.17077753E-04 -9.89638657E-04
  0.00000000E+00  6.14304894E-05  5.07651924E-07  0.00000000E+00  2.60827765E-05
  0.00000000E+00  0.00000000E+00 -1.17395685E-04  9.69931473E-06  7.68355059E-04
  0.00000000E+00  0.00000000E+00 -2.12599775E-04 -2.78094726E-04 -2.62231104E-04
  0.00000000E+00  0.00000000E+00  2.04029395E-04  1.47531930E-04  0.00000000E+00
 -6.41636260E-05 -5.80059067E-07  0.00000000E+00  0.00000000E+00  2.04459718E-05
  1.00911811E-05  0.00000000E+00  6.11579191E-06  1.31501309E-04  0.00000000E+00
  0.00000000E+00  2.82099720E-04  8.44553527E-05 -4.49260572E-03 -2.11306121E-04