 Entering Gaussian System, Link 0=g16
 Input=hoono_a1_95p39710.gjf
 Output=hoono_a1_95p39710.log
 Initial command:
 /sw/contrib/gaussian/g16/B01/g16/l1.exe "/scr/Gau-9884.inp" -scrdir="/scr/"
 Entering Link 1 = /sw/contrib/gaussian/g16/B01/g16/l1.exe PID=      9885.
  
 Copyright (c) 1988-2017, Gaussian, Inc.  All Rights Reserved.
  
 This is part of the Gaussian(R) 16 program.  It is based on
 the Gaussian(R) 09 system (copyright 2009, Gaussian, Inc.),
 the Gaussian(R) 03 system (copyright 2003, Gaussian, Inc.),
 the Gaussian(R) 98 system (copyright 1998, Gaussian, Inc.),
 the Gaussian(R) 94 system (copyright 1995, Gaussian, Inc.),
 the Gaussian 92(TM) system (copyright 1992, Gaussian, Inc.),
 the Gaussian 90(TM) system (copyright 1990, Gaussian, Inc.),
 the Gaussian 88(TM) system (copyright 1988, Gaussian, Inc.),
 the Gaussian 86(TM) system (copyright 1986, Carnegie Mellon
 University), and the Gaussian 82(TM) system (copyright 1983,
 Carnegie Mellon University). Gaussian is a federally registered
 trademark of Gaussian, Inc.
  
 This software contains proprietary and confidential information,
 including trade secrets, belonging to Gaussian, Inc.
  
 This software is provided under written license and may be
 used, copied, transmitted, or stored only in accord with that
 written license.
  
 The following legend is applicable only to US Government
 contracts under FAR:
  
                    RESTRICTED RIGHTS LEGEND
  
 Use, reproduction and disclosure by the US Government is
 subject to restrictions as set forth in subparagraphs (a)
 and (c) of the Commercial Computer Software - Restricted
 Rights clause in FAR 52.227-19.
  
 Gaussian, Inc.
 340 Quinnipiac St., Bldg. 40, Wallingford CT 06492
  
  
 ---------------------------------------------------------------
 Warning -- This program may not be used in any manner that
 competes with the business of Gaussian, Inc. or will provide
 assistance to any competitor of Gaussian, Inc.  The licensee
 of this program is prohibited from giving any competitor of
 Gaussian, Inc. access to this program.  By using this program,
 the user acknowledges that Gaussian, Inc. is engaged in the
 business of creating and licensing software in the field of
 computational chemistry and represents and warrants to the
 licensee that it is not a competitor of Gaussian, Inc. and that
 it will not use this program in any manner prohibited above.
 ---------------------------------------------------------------
  

 Cite this work as:
 Gaussian 16, Revision B.01,
 M. J. Frisch, G. W. Trucks, H. B. Schlegel, G. E. Scuseria, 
 M. A. Robb, J. R. Cheeseman, G. Scalmani, V. Barone, 
 G. A. Petersson, H. Nakatsuji, X. Li, M. Caricato, A. V. Marenich, 
 J. Bloino, B. G. Janesko, R. Gomperts, B. Mennucci, H. P. Hratchian, 
 J. V. Ortiz, A. F. Izmaylov, J. L. Sonnenberg, D. Williams-Young, 
 F. Ding, F. Lipparini, F. Egidi, J. Goings, B. Peng, A. Petrone, 
 T. Henderson, D. Ranasinghe, V. G. Zakrzewski, J. Gao, N. Rega, 
 G. Zheng, W. Liang, M. Hada, M. Ehara, K. Toyota, R. Fukuda, 
 J. Hasegawa, M. Ishida, T. Nakajima, Y. Honda, O. Kitao, H. Nakai, 
 T. Vreven, K. Throssell, J. A. Montgomery, Jr., J. E. Peralta, 
 F. Ogliaro, M. J. Bearpark, J. J. Heyd, E. N. Brothers, K. N. Kudin, 
 V. N. Staroverov, T. A. Keith, R. Kobayashi, J. Normand, 
 K. Raghavachari, A. P. Rendell, J. C. Burant, S. S. Iyengar, 
 J. Tomasi, M. Cossi, J. M. Millam, M. Klene, C. Adamo, R. Cammi, 
 J. W. Ochterski, R. L. Martin, K. Morokuma, O. Farkas, 
 J. B. Foresman, and D. J. Fox, Gaussian, Inc., Wallingford CT, 2016.
 
 ******************************************
 Gaussian 16:  ES64L-G16RevB.01 20-Dec-2017
                14-Feb-2022 
 ******************************************
 %nproc=28
 Will use up to   28 processors via shared memory.
 %mem=120GB
 %chk=hoono_a1_95p39710.chk
 -------------------------------------
 #p SP mp2/aug-cc-pvtz density=current
 -------------------------------------
 1/30=1,38=1,172=1/1;
 2/12=2,17=6,18=5,40=1/2;
 3/5=16,6=1,7=10,11=9,25=1,30=1,71=1/1,2,3;
 4//1;
 5/5=2,38=5/2;
 8/6=4,10=1/1;
 9/15=1,16=-3/6;
 10/5=1,13=10/2;
 6/7=2,8=2,9=2,10=2,22=-1/1;
 99/5=1,9=1/99;
 Leave Link    1 at Mon Feb 14 22:12:06 2022, MaxMem= 16106127360 cpu:               4.5 elap:               0.2
 (Enter /sw/contrib/gaussian/g16/B01/g16/l101.exe)
 -----
 title
 -----
 Symbolic Z-matrix:
 Charge =  0 Multiplicity = 1
 H
 O                    1    r1
 O                    2    r2       1    a1
 N                    3    r3       2    a2       1    d1       0
 O                    4    r4       3    a3       2    d2       0
       Variables:
  r1                    0.96898                  
  r2                    1.45492                  
  r3                    1.45878                  
  r4                    1.17073                  
  a1                   95.3971                   
  a2                  102.29752                  
  a3                  109.06955                  
  d1                  180.                       
  d2                  180.                       
 
 ITRead=  0  0  0  0  0
 MicOpt= -1 -1 -1 -1 -1
 NAtoms=      5 NQM=        5 NQMF=       0 NMMI=      0 NMMIF=      0
                NMic=       0 NMicF=      0.
                    Isotopes and Nuclear Properties:
 (Nuclear quadrupole moments (NQMom) in fm**2, nuclear magnetic moments (NMagM)
  in nuclear magnetons)

  Atom         1           2           3           4           5
 IAtWgt=           1          16          16          14          16
 AtmWgt=   1.0078250  15.9949146  15.9949146  14.0030740  15.9949146
 NucSpn=           1           0           0           2           0
 AtZEff=  -0.0000000  -0.0000000  -0.0000000  -0.0000000  -0.0000000
 NQMom=    0.0000000   0.0000000   0.0000000   2.0440000   0.0000000
 NMagM=    2.7928460   0.0000000   0.0000000   0.4037610   0.0000000
 AtZNuc=   1.0000000   8.0000000   8.0000000   7.0000000   8.0000000
 Leave Link  101 at Mon Feb 14 22:12:06 2022, MaxMem= 16106127360 cpu:               2.5 elap:               0.1
 (Enter /sw/contrib/gaussian/g16/B01/g16/l202.exe)
                          Input orientation:                          
 ---------------------------------------------------------------------
 Center     Atomic      Atomic             Coordinates (Angstroms)
 Number     Number       Type             X           Y           Z
 ---------------------------------------------------------------------
      1          1           0        0.000000    0.000000    0.000000
      2          8           0        0.000000    0.000000    0.968976
      3          8           0        1.448469    0.000000    1.105822
      4          7           0        1.623734    0.000000    2.554040
      5          8           0        2.768156    0.000000    2.800827
 ---------------------------------------------------------------------
                    Distance matrix (angstroms):
                    1          2          3          4          5
     1  H    0.000000
     2  O    0.968976   0.000000
     3  O    1.822335   1.454919   0.000000
     4  N    3.026488   2.269127   1.458784   0.000000
     5  O    3.937933   3.319392   2.148165   1.170729   0.000000
 Stoichiometry    HNO3
 Framework group  CS[SG(HNO3)]
 Deg. of freedom     7
 Full point group                 CS      NOp   2
 Largest Abelian subgroup         CS      NOp   2
 Largest concise Abelian subgroup C1      NOp   1
                         Standard orientation:                         
 ---------------------------------------------------------------------
 Center     Atomic      Atomic             Coordinates (Angstroms)
 Number     Number       Type             X           Y           Z
 ---------------------------------------------------------------------
      1          1           0        1.510308    1.692661    0.000000
      2          8           0        1.453975    0.725324    0.000000
      3          8           0       -0.000000    0.672918    0.000000
      4          7           0       -0.259163   -0.762660    0.000000
      5          8           0       -1.415996   -0.942497    0.000000
 ---------------------------------------------------------------------
 Rotational constants (GHZ):          54.8167562           5.0175572           4.5967973
 Leave Link  202 at Mon Feb 14 22:12:07 2022, MaxMem= 16106127360 cpu:               0.3 elap:               0.0
 (Enter /sw/contrib/gaussian/g16/B01/g16/l301.exe)
 Standard basis: Aug-CC-pVTZ (5D, 7F)
 Ernie: Thresh=  0.10000D-02 Tol=  0.10000D-05 Strict=F.
 Ernie:  12 primitive shells out of 131 were deleted.
 There are   166 symmetry adapted cartesian basis functions of A'  symmetry.
 There are    79 symmetry adapted cartesian basis functions of A"  symmetry.
 There are   136 symmetry adapted basis functions of A'  symmetry.
 There are    71 symmetry adapted basis functions of A"  symmetry.
   207 basis functions,   315 primitive gaussians,   245 cartesian basis functions
    16 alpha electrons       16 beta electrons
       nuclear repulsion energy       116.9235157532 Hartrees.
 IExCor=    0 DFT=F Ex=HF Corr=None ExCW=0 ScaHFX=  1.000000
 ScaDFX=  1.000000  1.000000  1.000000  1.000000 ScalE2=  1.000000  1.000000
 IRadAn=      5 IRanWt=     -1 IRanGd=            0 ICorTp=0 IEmpDi=  4
 NAtoms=    5 NActive=    5 NUniq=    5 SFac= 1.00D+00 NAtFMM=   60 NAOKFM=F Big=F
 Integral buffers will be    131072 words long.
 Raffenetti 1 integral format.
 Two-electron integral symmetry is turned on.
 Leave Link  301 at Mon Feb 14 22:12:07 2022, MaxMem= 16106127360 cpu:               1.7 elap:               0.1
 (Enter /sw/contrib/gaussian/g16/B01/g16/l302.exe)
 NPDir=0 NMtPBC=     1 NCelOv=     1 NCel=       1 NClECP=     1 NCelD=      1
         NCelK=      1 NCelE2=     1 NClLst=     1 CellRange=     0.0.
 One-electron integrals computed using PRISM.
 One-electron integral symmetry used in STVInt
 NBasis=   207 RedAO= T EigKep=  1.81D-04  NBF=   136    71
 NBsUse=   207 1.00D-06 EigRej= -1.00D+00 NBFU=   136    71
 Leave Link  302 at Mon Feb 14 22:12:07 2022, MaxMem= 16106127360 cpu:               7.0 elap:               0.3
 (Enter /sw/contrib/gaussian/g16/B01/g16/l303.exe)
 DipDrv:  MaxL=1.
 Leave Link  303 at Mon Feb 14 22:12:07 2022, MaxMem= 16106127360 cpu:               1.0 elap:               0.1
 (Enter /sw/contrib/gaussian/g16/B01/g16/l401.exe)
 ExpMin= 2.53D-02 ExpMax= 1.53D+04 ExpMxC= 5.22D+02 IAcc=3 IRadAn=         5 AccDes= 0.00D+00
 Harris functional with IExCor=  205 and IRadAn=       5 diagonalized for initial guess.
 HarFok:  IExCor=  205 AccDes= 0.00D+00 IRadAn=         5 IDoV= 1 UseB2=F ITyADJ=14
 ICtDFT=  3500011 ScaDFX=  1.000000  1.000000  1.000000  1.000000
 FoFCou: FMM=F IPFlag=           0 FMFlag=      100000 FMFlg1=           0
         NFxFlg=           0 DoJE=T BraDBF=F KetDBF=T FulRan=T
         wScrn=  0.000000 ICntrl=       500 IOpCl=  0 I1Cent=   200000004 NGrid=           0
         NMat0=    1 NMatS0=      1 NMatT0=    0 NMatD0=    1 NMtDS0=    0 NMtDT0=    0
 Petite list used in FoFCou.
 Harris En= -279.628088187416    
 JPrj=0 DoOrth=F DoCkMO=F.
 Initial guess orbital symmetries:
       Occupied  (A') (A') (A') (A') (A') (A') (A') (A') (A') (A')
                 (A") (A') (A') (A") (A") (A')
       Virtual   (A") (A') (A') (A') (A') (A') (A") (A') (A') (A')
                 (A") (A') (A") (A') (A') (A") (A') (A") (A') (A')
                 (A') (A') (A') (A') (A') (A") (A') (A") (A') (A')
                 (A") (A') (A") (A') (A') (A") (A') (A") (A') (A')
                 (A") (A') (A") (A') (A") (A') (A') (A') (A") (A")
                 (A') (A') (A') (A') (A") (A') (A") (A') (A") (A')
                 (A') (A') (A") (A') (A') (A") (A') (A") (A') (A')
                 (A") (A') (A') (A") (A") (A') (A') (A") (A') (A')
                 (A') (A") (A') (A") (A') (A") (A') (A") (A') (A')
                 (A') (A") (A') (A") (A') (A") (A") (A') (A') (A")
                 (A') (A') (A") (A') (A') (A') (A") (A') (A") (A')
                 (A") (A') (A') (A') (A") (A') (A') (A') (A") (A')
                 (A") (A') (A') (A") (A") (A') (A") (A') (A") (A')
                 (A') (A') (A') (A") (A") (A') (A") (A') (A') (A')
                 (A') (A") (A") (A') (A') (A") (A') (A') (A') (A')
                 (A') (A") (A') (A") (A') (A") (A') (A") (A") (A')
                 (A') (A") (A') (A") (A') (A") (A") (A") (A') (A')
                 (A") (A') (A") (A') (A") (A') (A") (A") (A') (A')
                 (A') (A') (A') (A') (A') (A') (A') (A') (A') (A')
                 (A')
 The electronic state of the initial guess is 1-A'.
 Leave Link  401 at Mon Feb 14 22:12:07 2022, MaxMem= 16106127360 cpu:               6.9 elap:               0.3
 (Enter /sw/contrib/gaussian/g16/B01/g16/l502.exe)
 Keep R1 ints in memory in symmetry-blocked form, NReq=348887737.
 FoFCou: FMM=F IPFlag=           0 FMFlag=           0 FMFlg1=           0
         NFxFlg=           0 DoJE=F BraDBF=F KetDBF=F FulRan=T
         wScrn=  0.000000 ICntrl=       600 IOpCl=  0 I1Cent=           0 NGrid=           0
         NMat0=    1 NMatS0=  21528 NMatT0=    0 NMatD0=    1 NMtDS0=    0 NMtDT0=    0
 Petite list used in FoFCou.
 Closed shell SCF:
 Using DIIS extrapolation, IDIIS=  1040.
 NGot= 16106127360 LenX= 15988850015 LenY= 15988789549
 Requested convergence on RMS density matrix=1.00D-08 within 128 cycles.
 Requested convergence on MAX density matrix=1.00D-06.
 Requested convergence on             energy=1.00D-06.
 No special actions if energy rises.

 Cycle   1  Pass 1  IDiag  1:
 E= -279.369998269000    
 DIIS: error= 2.81D-02 at cycle   1 NSaved=   1.
 NSaved= 1 IEnMin= 1 EnMin= -279.369998269000     IErMin= 1 ErrMin= 2.81D-02
 ErrMax= 2.81D-02  0.00D+00 EMaxC= 1.00D-01 BMatC= 4.38D-01 BMatP= 4.38D-01
 IDIUse=3 WtCom= 7.19D-01 WtEn= 2.81D-01
 Coeff-Com:  0.100D+01
 Coeff-En:   0.100D+01
 Coeff:      0.100D+01
 Gap=     0.513 Goal=   None    Shift=    0.000
 GapD=    0.513 DampG=2.000 DampE=0.500 DampFc=1.0000 IDamp=-1.
 RMSDP=1.63D-03 MaxDP=9.95D-02              OVMax= 1.13D-01

 Cycle   2  Pass 1  IDiag  1:
 E= -279.451832198768     Delta-E=       -0.081833929768 Rises=F Damp=F
 DIIS: error= 1.79D-02 at cycle   2 NSaved=   2.
 NSaved= 2 IEnMin= 2 EnMin= -279.451832198768     IErMin= 2 ErrMin= 1.79D-02
 ErrMax= 1.79D-02  0.00D+00 EMaxC= 1.00D-01 BMatC= 7.19D-02 BMatP= 4.38D-01
 IDIUse=3 WtCom= 8.21D-01 WtEn= 1.79D-01
 Coeff-Com:  0.195D+00 0.805D+00
 Coeff-En:   0.000D+00 0.100D+01
 Coeff:      0.160D+00 0.840D+00
 Gap=     0.530 Goal=   None    Shift=    0.000
 RMSDP=9.01D-04 MaxDP=3.74D-02 DE=-8.18D-02 OVMax= 6.92D-02

 Cycle   3  Pass 1  IDiag  1:
 E= -279.480986323871     Delta-E=       -0.029154125103 Rises=F Damp=F
 DIIS: error= 1.04D-02 at cycle   3 NSaved=   3.
 NSaved= 3 IEnMin= 3 EnMin= -279.480986323871     IErMin= 3 ErrMin= 1.04D-02
 ErrMax= 1.04D-02  0.00D+00 EMaxC= 1.00D-01 BMatC= 2.88D-02 BMatP= 7.19D-02
 IDIUse=3 WtCom= 8.96D-01 WtEn= 1.04D-01
 Coeff-Com: -0.330D-01 0.378D+00 0.655D+00
 Coeff-En:   0.000D+00 0.241D+00 0.759D+00
 Coeff:     -0.296D-01 0.364D+00 0.665D+00
 Gap=     0.511 Goal=   None    Shift=    0.000
 RMSDP=3.77D-04 MaxDP=1.55D-02 DE=-2.92D-02 OVMax= 3.82D-02

 Cycle   4  Pass 1  IDiag  1:
 E= -279.500128733981     Delta-E=       -0.019142410111 Rises=F Damp=F
 DIIS: error= 1.27D-03 at cycle   4 NSaved=   4.
 NSaved= 4 IEnMin= 4 EnMin= -279.500128733981     IErMin= 4 ErrMin= 1.27D-03
 ErrMax= 1.27D-03  0.00D+00 EMaxC= 1.00D-01 BMatC= 4.94D-04 BMatP= 2.88D-02
 IDIUse=3 WtCom= 9.87D-01 WtEn= 1.27D-02
 Coeff-Com: -0.117D-01 0.573D-01 0.158D+00 0.796D+00
 Coeff-En:   0.000D+00 0.000D+00 0.000D+00 0.100D+01
 Coeff:     -0.115D-01 0.566D-01 0.156D+00 0.799D+00
 Gap=     0.502 Goal=   None    Shift=    0.000
 RMSDP=9.06D-05 MaxDP=2.79D-03 DE=-1.91D-02 OVMax= 1.12D-02

 Cycle   5  Pass 1  IDiag  1:
 E= -279.500806944049     Delta-E=       -0.000678210068 Rises=F Damp=F
 DIIS: error= 7.19D-04 at cycle   5 NSaved=   5.
 NSaved= 5 IEnMin= 5 EnMin= -279.500806944049     IErMin= 5 ErrMin= 7.19D-04
 ErrMax= 7.19D-04  0.00D+00 EMaxC= 1.00D-01 BMatC= 8.76D-05 BMatP= 4.94D-04
 IDIUse=3 WtCom= 9.93D-01 WtEn= 7.19D-03
 Coeff-Com:  0.615D-02-0.725D-01-0.118D+00 0.212D-01 0.116D+01
 Coeff-En:   0.000D+00 0.000D+00 0.000D+00 0.000D+00 0.100D+01
 Coeff:      0.610D-02-0.720D-01-0.117D+00 0.210D-01 0.116D+01
 Gap=     0.502 Goal=   None    Shift=    0.000
 RMSDP=7.64D-05 MaxDP=2.10D-03 DE=-6.78D-04 OVMax= 1.11D-02

 Cycle   6  Pass 1  IDiag  1:
 E= -279.501123111115     Delta-E=       -0.000316167065 Rises=F Damp=F
 DIIS: error= 2.93D-04 at cycle   6 NSaved=   6.
 NSaved= 6 IEnMin= 6 EnMin= -279.501123111115     IErMin= 6 ErrMin= 2.93D-04
 ErrMax= 2.93D-04  0.00D+00 EMaxC= 1.00D-01 BMatC= 1.68D-05 BMatP= 8.76D-05
 IDIUse=3 WtCom= 9.97D-01 WtEn= 2.93D-03
 Coeff-Com:  0.653D-03 0.865D-03 0.324D-02-0.129D+00-0.220D+00 0.134D+01
 Coeff-En:   0.000D+00 0.000D+00 0.000D+00 0.000D+00 0.000D+00 0.100D+01
 Coeff:      0.652D-03 0.862D-03 0.324D-02-0.129D+00-0.219D+00 0.134D+01
 Gap=     0.503 Goal=   None    Shift=    0.000
 RMSDP=4.52D-05 MaxDP=1.25D-03 DE=-3.16D-04 OVMax= 5.53D-03

 Cycle   7  Pass 1  IDiag  1:
 E= -279.501195862942     Delta-E=       -0.000072751828 Rises=F Damp=F
 DIIS: error= 1.27D-04 at cycle   7 NSaved=   7.
 NSaved= 7 IEnMin= 7 EnMin= -279.501195862942     IErMin= 7 ErrMin= 1.27D-04
 ErrMax= 1.27D-04  0.00D+00 EMaxC= 1.00D-01 BMatC= 4.75D-06 BMatP= 1.68D-05
 IDIUse=3 WtCom= 9.99D-01 WtEn= 1.27D-03
 Coeff-Com: -0.943D-03 0.137D-01 0.267D-01-0.263D-01-0.293D+00 0.412D+00
 Coeff-Com:  0.868D+00
 Coeff-En:   0.000D+00 0.000D+00 0.000D+00 0.000D+00 0.000D+00 0.000D+00
 Coeff-En:   0.100D+01
 Coeff:     -0.942D-03 0.137D-01 0.267D-01-0.263D-01-0.293D+00 0.412D+00
 Coeff:      0.868D+00
 Gap=     0.503 Goal=   None    Shift=    0.000
 RMSDP=1.34D-05 MaxDP=3.79D-04 DE=-7.28D-05 OVMax= 1.56D-03

 Cycle   8  Pass 1  IDiag  1:
 E= -279.501205038702     Delta-E=       -0.000009175760 Rises=F Damp=F
 DIIS: error= 5.67D-05 at cycle   8 NSaved=   8.
 NSaved= 8 IEnMin= 8 EnMin= -279.501205038702     IErMin= 8 ErrMin= 5.67D-05
 ErrMax= 5.67D-05  0.00D+00 EMaxC= 1.00D-01 BMatC= 6.07D-07 BMatP= 4.75D-06
 IDIUse=1 WtCom= 1.00D+00 WtEn= 0.00D+00
 Coeff-Com: -0.451D-03 0.347D-02 0.763D-02 0.275D-01-0.414D-01-0.195D+00
 Coeff-Com:  0.149D+00 0.105D+01
 Coeff:     -0.451D-03 0.347D-02 0.763D-02 0.275D-01-0.414D-01-0.195D+00
 Coeff:      0.149D+00 0.105D+01
 Gap=     0.502 Goal=   None    Shift=    0.000
 RMSDP=7.05D-06 MaxDP=2.06D-04 DE=-9.18D-06 OVMax= 7.59D-04

 Cycle   9  Pass 1  IDiag  1:
 E= -279.501206863134     Delta-E=       -0.000001824431 Rises=F Damp=F
 DIIS: error= 1.53D-05 at cycle   9 NSaved=   9.
 NSaved= 9 IEnMin= 9 EnMin= -279.501206863134     IErMin= 9 ErrMin= 1.53D-05
 ErrMax= 1.53D-05  0.00D+00 EMaxC= 1.00D-01 BMatC= 6.86D-08 BMatP= 6.07D-07
 IDIUse=1 WtCom= 1.00D+00 WtEn= 0.00D+00
 Coeff-Com:  0.123D-03-0.172D-02-0.307D-02-0.203D-02 0.343D-01-0.401D-03
 Coeff-Com: -0.160D+00-0.113D+00 0.125D+01
 Coeff:      0.123D-03-0.172D-02-0.307D-02-0.203D-02 0.343D-01-0.401D-03
 Coeff:     -0.160D+00-0.113D+00 0.125D+01
 Gap=     0.502 Goal=   None    Shift=    0.000
 RMSDP=1.94D-06 MaxDP=6.63D-05 DE=-1.82D-06 OVMax= 1.76D-04

 Cycle  10  Pass 1  IDiag  1:
 E= -279.501207023272     Delta-E=       -0.000000160138 Rises=F Damp=F
 DIIS: error= 4.41D-06 at cycle  10 NSaved=  10.
 NSaved=10 IEnMin=10 EnMin= -279.501207023272     IErMin=10 ErrMin= 4.41D-06
 ErrMax= 4.41D-06  0.00D+00 EMaxC= 1.00D-01 BMatC= 5.58D-09 BMatP= 6.86D-08
 IDIUse=1 WtCom= 1.00D+00 WtEn= 0.00D+00
 Coeff-Com:  0.308D-04-0.241D-03-0.319D-03-0.270D-02 0.160D-02 0.195D-01
 Coeff-Com: -0.113D-01-0.755D-01-0.810D-01 0.115D+01
 Coeff:      0.308D-04-0.241D-03-0.319D-03-0.270D-02 0.160D-02 0.195D-01
 Coeff:     -0.113D-01-0.755D-01-0.810D-01 0.115D+01
 Gap=     0.502 Goal=   None    Shift=    0.000
 RMSDP=5.05D-07 MaxDP=2.11D-05 DE=-1.60D-07 OVMax= 4.20D-05

 Cycle  11  Pass 1  IDiag  1:
 E= -279.501207035852     Delta-E=       -0.000000012580 Rises=F Damp=F
 DIIS: error= 2.04D-06 at cycle  11 NSaved=  11.
 NSaved=11 IEnMin=11 EnMin= -279.501207035852     IErMin=11 ErrMin= 2.04D-06
 ErrMax= 2.04D-06  0.00D+00 EMaxC= 1.00D-01 BMatC= 6.63D-10 BMatP= 5.58D-09
 IDIUse=1 WtCom= 1.00D+00 WtEn= 0.00D+00
 Coeff-Com: -0.213D-04 0.245D-03 0.488D-03 0.526D-03-0.431D-02-0.342D-02
 Coeff-Com:  0.198D-01 0.325D-01-0.139D+00-0.179D+00 0.127D+01
 Coeff:     -0.213D-04 0.245D-03 0.488D-03 0.526D-03-0.431D-02-0.342D-02
 Coeff:      0.198D-01 0.325D-01-0.139D+00-0.179D+00 0.127D+01
 Gap=     0.502 Goal=   None    Shift=    0.000
 RMSDP=1.79D-07 MaxDP=6.55D-06 DE=-1.26D-08 OVMax= 1.74D-05

 Cycle  12  Pass 1  IDiag  1:
 E= -279.501207037666     Delta-E=       -0.000000001814 Rises=F Damp=F
 DIIS: error= 5.91D-07 at cycle  12 NSaved=  12.
 NSaved=12 IEnMin=12 EnMin= -279.501207037666     IErMin=12 ErrMin= 5.91D-07
 ErrMax= 5.91D-07  0.00D+00 EMaxC= 1.00D-01 BMatC= 7.16D-11 BMatP= 6.63D-10
 IDIUse=1 WtCom= 1.00D+00 WtEn= 0.00D+00
 Coeff-Com:  0.125D-05-0.292D-04-0.631D-04 0.185D-03 0.108D-02-0.229D-02
 Coeff-Com: -0.409D-02 0.534D-02 0.417D-01-0.114D+00-0.278D+00 0.135D+01
 Coeff:      0.125D-05-0.292D-04-0.631D-04 0.185D-03 0.108D-02-0.229D-02
 Coeff:     -0.409D-02 0.534D-02 0.417D-01-0.114D+00-0.278D+00 0.135D+01
 Gap=     0.502 Goal=   None    Shift=    0.000
 RMSDP=7.17D-08 MaxDP=2.83D-06 DE=-1.81D-09 OVMax= 6.68D-06

 Cycle  13  Pass 1  IDiag  1:
 E= -279.501207037895     Delta-E=       -0.000000000229 Rises=F Damp=F
 DIIS: error= 1.66D-07 at cycle  13 NSaved=  13.
 NSaved=13 IEnMin=13 EnMin= -279.501207037895     IErMin=13 ErrMin= 1.66D-07
 ErrMax= 1.66D-07  0.00D+00 EMaxC= 1.00D-01 BMatC= 4.00D-12 BMatP= 7.16D-11
 IDIUse=1 WtCom= 1.00D+00 WtEn= 0.00D+00
 Coeff-Com:  0.127D-05-0.139D-04-0.223D-04-0.885D-04 0.122D-03 0.745D-03
 Coeff-Com: -0.745D-03-0.332D-02 0.509D-03 0.411D-01-0.354D-01-0.326D+00
 Coeff-Com:  0.132D+01
 Coeff:      0.127D-05-0.139D-04-0.223D-04-0.885D-04 0.122D-03 0.745D-03
 Coeff:     -0.745D-03-0.332D-02 0.509D-03 0.411D-01-0.354D-01-0.326D+00
 Coeff:      0.132D+01
 Gap=     0.502 Goal=   None    Shift=    0.000
 RMSDP=1.91D-08 MaxDP=5.60D-07 DE=-2.29D-10 OVMax= 1.55D-06

 Cycle  14  Pass 1  IDiag  1:
 E= -279.501207037907     Delta-E=       -0.000000000012 Rises=F Damp=F
 DIIS: error= 2.43D-08 at cycle  14 NSaved=  14.
 NSaved=14 IEnMin=14 EnMin= -279.501207037907     IErMin=14 ErrMin= 2.43D-08
 ErrMax= 2.43D-08  0.00D+00 EMaxC= 1.00D-01 BMatC= 1.94D-13 BMatP= 4.00D-12
 IDIUse=1 WtCom= 1.00D+00 WtEn= 0.00D+00
 Coeff-Com: -0.188D-06 0.308D-05 0.551D-05 0.442D-05-0.819D-04 0.465D-04
 Coeff-Com:  0.267D-03 0.236D-03-0.242D-02 0.145D-02 0.169D-01-0.257D-01
 Coeff-Com: -0.198D+00 0.121D+01
 Coeff:     -0.188D-06 0.308D-05 0.551D-05 0.442D-05-0.819D-04 0.465D-04
 Coeff:      0.267D-03 0.236D-03-0.242D-02 0.145D-02 0.169D-01-0.257D-01
 Coeff:     -0.198D+00 0.121D+01
 Gap=     0.502 Goal=   None    Shift=    0.000
 RMSDP=3.77D-09 MaxDP=9.10D-08 DE=-1.19D-11 OVMax= 3.39D-07

 SCF Done:  E(RHF) =  -279.501207038     A.U. after   14 cycles
            NFock= 14  Conv=0.38D-08     -V/T= 2.0023
 KE= 2.788536351992D+02 PE=-8.951733402420D+02 EE= 2.198949822517D+02
 Leave Link  502 at Mon Feb 14 22:12:11 2022, MaxMem= 16106127360 cpu:              56.5 elap:               3.7
 (Enter /sw/contrib/gaussian/g16/B01/g16/l801.exe)
 ExpMin= 2.53D-02 ExpMax= 1.53D+04 ExpMxC= 5.22D+02 IAcc=3 IRadAn=         5 AccDes= 0.00D+00
 HarFok:  IExCor=  205 AccDes= 0.00D+00 IRadAn=         5 IDoV=-2 UseB2=F ITyADJ=14
 ICtDFT= 12500011 ScaDFX=  1.000000  1.000000  1.000000  1.000000
 Largest valence mixing into a core orbital is  2.08D-04
 Largest core mixing into a valence orbital is  3.63D-05
 Range of M.O.s used for correlation:     5   207
 NBasis=   207 NAE=    16 NBE=    16 NFC=     4 NFV=     0
 NROrb=    203 NOA=    12 NOB=    12 NVA=   191 NVB=   191

 **** Warning!!: The largest alpha MO coefficient is  0.17199427D+02

 Leave Link  801 at Mon Feb 14 22:12:11 2022, MaxMem= 16106127360 cpu:               2.1 elap:               0.1
 (Enter /sw/contrib/gaussian/g16/B01/g16/l906.exe)
 Frozen-core derivative calculation, NFC=   4 NFV=   0.
 FulOut=F Deriv=T AODrv=F NAtomX=     5
   MMem=          76  MDisk=          12 MDiskD=          12
  W3Min=      811440 MinDsk=     1524655 NBas6D=         245
 NBas2D=       30762    NTT=       30135    LW2=     3500000
    MDV= 16105579885 MDiskM=      328644 NBas2p=       30466
 Fully in-core method, ICMem=   960157634.
 IMap=   1   2   3   4   5   6   7   8   9  10  11  12  13  14  15  16
 JobTyp=1 Pass  1 fully in-core, NPsUse= 28.
 Compute canonical integrals.
 FoFCou: FMM=F IPFlag=           0 FMFlag=           0 FMFlg1=           0
         NFxFlg=           0 DoJE=F BraDBF=F KetDBF=F FulRan=T
         wScrn=  0.000000 ICntrl=       600 IOpCl=  1 I1Cent=           0 NGrid=           0
         NMat0=    1 NMatS0=  30762 NMatT0=    0 NMatD0=    1 NMtDS0=    0 NMtDT0=    0
 Symmetry not used in FoFCou.
 Spin components of T(2) and E(2):
     alpha-alpha T2 =       0.3404862752D-01 E2=     -0.1224646640D+00
     alpha-beta  T2 =       0.1869483157D+00 E2=     -0.7004420627D+00
     beta-beta   T2 =       0.3404862752D-01 E2=     -0.1224646640D+00
 The integrals were generated   1 times.
 ANorm=    0.1120288164D+01
 E2 =    -0.9453713906D+00 EUMP2 =    -0.28044657842851D+03
 Leave Link  906 at Mon Feb 14 22:12:20 2022, MaxMem= 16106127360 cpu:             244.5 elap:               8.8
 (Enter /sw/contrib/gaussian/g16/B01/g16/l1002.exe)
 Minotr:  Closed shell wavefunction.
          Computing MP2/KS-MP2 derivatives.
          Using Z-Vector for PSCF gradient.
          Skipping F1 and S1 gradient terms here.
          Frozen-core window.
          Direct CPHF calculation.
          Differentiating once with respect to electric field.
                with respect to dipole field.
          Electric field/nuclear overlap derivatives assumed to be zero.
          Using symmetry in CPHF.
          Requested convergence is 1.0D-10 RMS, and 1.0D-09 maximum.
          NewPWx=F KeepS1=T KeepF1=T KeepIn=T MapXYZ=F SortEE=F KeepMc=T.
 Keep R1 ints in memory in symmetry-blocked form, NReq=348888868.
 FoFCou: FMM=F IPFlag=           0 FMFlag=           0 FMFlg1=           0
         NFxFlg=           0 DoJE=F BraDBF=F KetDBF=F FulRan=T
         wScrn=  0.000000 ICntrl=       600 IOpCl=  0 I1Cent=           0 NGrid=           0
         NMat0=    1 NMatS0=  21528 NMatT0=    0 NMatD0=    1 NMtDS0=    0 NMtDT0=    0
 Petite list used in FoFCou.
          MDV=   16106127360 using IRadAn=       5.
          Solving linear equations separately, MaxMat=       0.
          There are     1 degrees of freedom in the 1st order CPHF.  IDoFFX=0 NUNeed=     1.
 LinEq1:  Iter=  0 NonCon=     1 RMS=5.96D-03 Max=1.32D-01 NDo=     1
 AX will form     1 AO Fock derivatives at one time.
 LinEq1:  Iter=  1 NonCon=     1 RMS=1.90D-03 Max=3.82D-02 NDo=     1
 LinEq1:  Iter=  2 NonCon=     1 RMS=8.68D-04 Max=1.44D-02 NDo=     1
 LinEq1:  Iter=  3 NonCon=     1 RMS=3.86D-04 Max=7.76D-03 NDo=     1
 LinEq1:  Iter=  4 NonCon=     1 RMS=1.19D-04 Max=1.92D-03 NDo=     1
 LinEq1:  Iter=  5 NonCon=     1 RMS=4.47D-05 Max=7.16D-04 NDo=     1
 LinEq1:  Iter=  6 NonCon=     1 RMS=2.01D-05 Max=2.34D-04 NDo=     1
 LinEq1:  Iter=  7 NonCon=     1 RMS=8.10D-06 Max=1.59D-04 NDo=     1
 LinEq1:  Iter=  8 NonCon=     1 RMS=3.47D-06 Max=3.38D-05 NDo=     1
 LinEq1:  Iter=  9 NonCon=     1 RMS=9.46D-07 Max=1.31D-05 NDo=     1
 LinEq1:  Iter= 10 NonCon=     1 RMS=1.86D-07 Max=2.04D-06 NDo=     1
 LinEq1:  Iter= 11 NonCon=     1 RMS=3.48D-08 Max=3.53D-07 NDo=     1
 LinEq1:  Iter= 12 NonCon=     1 RMS=8.36D-09 Max=1.28D-07 NDo=     1
 LinEq1:  Iter= 13 NonCon=     1 RMS=1.50D-09 Max=2.53D-08 NDo=     1
 LinEq1:  Iter= 14 NonCon=     1 RMS=2.72D-10 Max=3.83D-09 NDo=     1
 LinEq1:  Iter= 15 NonCon=     0 RMS=4.94D-11 Max=5.54D-10 NDo=     1
 Linear equations converged to 1.000D-10 1.000D-09 after    15 iterations.
 End of Minotr F.D. properties file   721 does not exist.
 End of Minotr F.D. properties file   722 does not exist.
 End of Minotr F.D. properties file   788 does not exist.
 Leave Link 1002 at Mon Feb 14 22:12:24 2022, MaxMem= 16106127360 cpu:              53.3 elap:               3.9
 (Enter /sw/contrib/gaussian/g16/B01/g16/l601.exe)
 Copying SCF densities to generalized density rwf, IOpCl= 0 IROHF=0.

 **********************************************************************

            Population analysis using the MP2 Density.

 **********************************************************************

 Orbital symmetries:
       Occupied  (A') (A') (A') (A') (A') (A') (A') (A') (A') (A')
                 (A") (A') (A") (A') (A") (A')
       Virtual   (A') (A") (A') (A') (A") (A') (A') (A') (A") (A')
                 (A") (A') (A') (A') (A") (A') (A') (A") (A') (A')
                 (A') (A') (A') (A') (A") (A') (A') (A") (A') (A')
                 (A") (A') (A") (A') (A") (A') (A') (A') (A") (A')
                 (A") (A') (A") (A') (A') (A") (A') (A') (A") (A')
                 (A") (A') (A') (A') (A") (A') (A") (A') (A") (A')
                 (A') (A') (A") (A') (A') (A") (A') (A") (A') (A')
                 (A") (A') (A') (A") (A") (A') (A') (A") (A') (A')
                 (A') (A") (A') (A") (A') (A") (A') (A") (A') (A')
                 (A") (A') (A') (A") (A') (A") (A') (A") (A') (A')
                 (A") (A') (A") (A') (A') (A") (A') (A') (A") (A')
                 (A") (A') (A') (A') (A") (A') (A') (A') (A") (A')
                 (A") (A') (A") (A') (A') (A") (A") (A') (A") (A')
                 (A') (A') (A') (A") (A") (A") (A') (A') (A') (A')
                 (A") (A') (A") (A') (A') (A") (A') (A') (A') (A')
                 (A") (A') (A') (A") (A') (A") (A') (A") (A") (A')
                 (A') (A") (A') (A') (A") (A") (A") (A') (A") (A')
                 (A") (A') (A") (A') (A") (A') (A") (A") (A') (A')
                 (A') (A') (A') (A') (A') (A') (A') (A') (A') (A')
                 (A')
 The electronic state is 1-A'.
 Alpha  occ. eigenvalues --  -20.69065 -20.68427 -20.66081 -15.81279  -1.62414
 Alpha  occ. eigenvalues --   -1.49713  -1.25407  -0.94820  -0.77392  -0.75776
 Alpha  occ. eigenvalues --   -0.71205  -0.67873  -0.62085  -0.59145  -0.48550
 Alpha  occ. eigenvalues --   -0.47253
 Alpha virt. eigenvalues --    0.02988   0.07158   0.08592   0.10164   0.13384
 Alpha virt. eigenvalues --    0.13408   0.14413   0.15465   0.17819   0.19395
 Alpha virt. eigenvalues --    0.19961   0.20641   0.22069   0.23532   0.23735
 Alpha virt. eigenvalues --    0.26510   0.29344   0.30370   0.31111   0.34324
 Alpha virt. eigenvalues --    0.35007   0.38731   0.42374   0.43101   0.52770
 Alpha virt. eigenvalues --    0.52941   0.55804   0.58107   0.62613   0.63808
 Alpha virt. eigenvalues --    0.67466   0.68487   0.70651   0.70977   0.72833
 Alpha virt. eigenvalues --    0.72849   0.74439   0.79362   0.79478   0.81193
 Alpha virt. eigenvalues --    0.81211   0.82922   0.86765   0.90862   0.92078
 Alpha virt. eigenvalues --    0.92762   0.95446   0.97628   0.98628   1.01758
 Alpha virt. eigenvalues --    1.05149   1.05441   1.08270   1.11733   1.14419
 Alpha virt. eigenvalues --    1.19030   1.22096   1.23586   1.33959   1.35188
 Alpha virt. eigenvalues --    1.38564   1.45743   1.48701   1.50568   1.53717
 Alpha virt. eigenvalues --    1.56647   1.57951   1.61011   1.66214   1.67090
 Alpha virt. eigenvalues --    1.70311   1.79810   1.83057   1.83623   1.87722
 Alpha virt. eigenvalues --    1.91131   1.95471   1.99430   2.00361   2.07928
 Alpha virt. eigenvalues --    2.12719   2.13209   2.14965   2.22687   2.26229
 Alpha virt. eigenvalues --    2.26407   2.29118   2.31369   2.34227   2.38665
 Alpha virt. eigenvalues --    2.42808   2.43443   2.45315   2.46239   2.48021
 Alpha virt. eigenvalues --    2.49917   2.59086   2.59936   2.61946   2.62648
 Alpha virt. eigenvalues --    2.63524   2.66517   2.75800   2.82741   2.84503
 Alpha virt. eigenvalues --    2.87864   2.89186   2.92858   2.95335   3.02411
 Alpha virt. eigenvalues --    3.06925   3.12001   3.20929   3.22335   3.31392
 Alpha virt. eigenvalues --    3.34299   3.51901   3.63765   3.83694   3.84045
 Alpha virt. eigenvalues --    4.14585   4.17285   4.18338   4.25873   4.34436
 Alpha virt. eigenvalues --    4.39665   4.46141   4.52864   4.65849   4.73426
 Alpha virt. eigenvalues --    4.80226   4.82377   4.82824   4.89556   5.02503
 Alpha virt. eigenvalues --    5.07690   5.10177   5.13571   5.17297   5.25177
 Alpha virt. eigenvalues --    5.26987   5.30637   5.32843   5.35837   5.60144
 Alpha virt. eigenvalues --    5.67349   5.76429   5.84381   5.95818   6.17551
 Alpha virt. eigenvalues --    6.31176   6.33144   6.39347   6.49383   6.50519
 Alpha virt. eigenvalues --    6.61524   6.66787   6.70323   6.76077   6.76193
 Alpha virt. eigenvalues --    6.83498   6.89926   7.02634   7.04830   7.05676
 Alpha virt. eigenvalues --    7.08899   7.12541   7.14113   7.18230   7.22718
 Alpha virt. eigenvalues --    7.24152   7.30204   7.32432   7.35066   7.39981
 Alpha virt. eigenvalues --    7.45141   7.48483   7.60699   7.62115   7.62635
 Alpha virt. eigenvalues --    7.66720   7.79774   7.88711   8.09429   8.31926
 Alpha virt. eigenvalues --    8.39253   8.54248  13.38923  14.38811  15.18802
 Alpha virt. eigenvalues --   16.15431
          Condensed to atoms (all electrons):
               1          2          3          4          5
     1  H    0.585969   0.129943   0.019157   0.012021  -0.000523
     2  O    0.129943   8.322761  -0.177052  -0.089120   0.015371
     3  O    0.019157  -0.177052   8.476859  -0.131573  -0.038450
     4  N    0.012021  -0.089120  -0.131573   6.973164  -0.055349
     5  O   -0.000523   0.015371  -0.038450  -0.055349   8.272396
 Mulliken charges:
               1
     1  H    0.253432
     2  O   -0.201904
     3  O   -0.148941
     4  N    0.290857
     5  O   -0.193444
 Sum of Mulliken charges =  -0.00000
 Mulliken charges with hydrogens summed into heavy atoms:
               1
     2  O    0.051528
     3  O   -0.148941
     4  N    0.290857
     5  O   -0.193444
 Electronic spatial extent (au):  <R**2>=            252.6430
 Charge=             -0.0000 electrons
 Dipole moment (field-independent basis, Debye):
    X=              0.4570    Y=              1.3561    Z=             -0.0000  Tot=              1.4310
 Quadrupole moment (field-independent basis, Debye-Ang):
   XX=            -22.6512   YY=            -18.5953   ZZ=            -22.0066
   XY=              3.1239   XZ=             -0.0000   YZ=              0.0000
 Traceless Quadrupole moment (field-independent basis, Debye-Ang):
   XX=             -1.5668   YY=              2.4890   ZZ=             -0.9222
   XY=              3.1239   XZ=             -0.0000   YZ=              0.0000
 Octapole moment (field-independent basis, Debye-Ang**2):
  XXX=              2.3958  YYY=             11.3893  ZZZ=             -0.0000  XYY=              7.7111
  XXY=              6.1888  XXZ=             -0.0000  XZZ=             -1.5746  YZZ=             -0.8554
  YYZ=             -0.0000  XYZ=             -0.0000
 Hexadecapole moment (field-independent basis, Debye-Ang**3):
 XXXX=           -158.7343 YYYY=            -89.8426 ZZZZ=            -18.2306 XXXY=            -37.5854
 XXXZ=             -0.0000 YYYX=            -31.0097 YYYZ=              0.0000 ZZZX=             -0.0000
 ZZZY=              0.0000 XXYY=            -34.5858 XXZZ=            -30.7471 YYZZ=            -20.7212
 XXYZ=              0.0000 YYXZ=              0.0000 ZZXY=            -15.0469
 N-N= 1.169235157532D+02 E-N=-8.959573747256D+02  KE= 2.802058324543D+02
 Symmetry A'   KE= 2.662331331965D+02
 Symmetry A"   KE= 1.397269925781D+01
 No NMR shielding tensors so no spin-rotation constants.
 Leave Link  601 at Mon Feb 14 22:12:24 2022, MaxMem= 16106127360 cpu:               7.7 elap:               0.4
 (Enter /sw/contrib/gaussian/g16/B01/g16/l9999.exe)
 1\1\GINC-N2131\SP\RMP2-FC\Aug-CC-pVTZ\H1N1O3\CGAVINH\14-Feb-2022\0\\#p
  SP mp2/aug-cc-pvtz density=current\\title\\0,1\H\O,1,0.96897556\O,2,1
 .45491931,1,95.39710469\N,3,1.45878406,2,102.29752444,1,180.,0\O,4,1.1
 7072885,3,109.06955123,2,180.,0\\Version=ES64L-G16RevB.01\State=1-A'\H
 F=-279.501207\MP2=-280.4465784\RMSD=3.769e-09\Dipole=-0.1484917,0.,-0.
 5430666\Quadrupole=-1.4242984,-0.6856429,2.1099413,0.,2.1318631,0.\PG=
 CS [SG(H1N1O3)]\\@


 IT IS A QUALITY OF REVOLUTIONS NOT TO GO BY OLD LINES OR OLD LAWS,
 BUT TO BREAK UP BOTH, AND MAKE NEW ONES.
                                              -- A. LINCOLN (1848)
 Job cpu time:       0 days  0 hours  6 minutes 28.8 seconds.
 Elapsed time:       0 days  0 hours  0 minutes 18.0 seconds.
 File lengths (MBytes):  RWF=     22 Int=      0 D2E=      0 Chk=      8 Scr=      1
 Normal termination of Gaussian 16 at Mon Feb 14 22:12:24 2022.
