 Entering Gaussian System, Link 0=g16
 Input=hoono_r3_1p486388.gjf
 Output=hoono_r3_1p486388.log
 Initial command:
 /sw/contrib/gaussian/g16/B01/g16/l1.exe "/scr/Gau-7688.inp" -scrdir="/scr/"
 Entering Link 1 = /sw/contrib/gaussian/g16/B01/g16/l1.exe PID=      7689.
  
 Copyright (c) 1988-2017, Gaussian, Inc.  All Rights Reserved.
  
 This is part of the Gaussian(R) 16 program.  It is based on
 the Gaussian(R) 09 system (copyright 2009, Gaussian, Inc.),
 the Gaussian(R) 03 system (copyright 2003, Gaussian, Inc.),
 the Gaussian(R) 98 system (copyright 1998, Gaussian, Inc.),
 the Gaussian(R) 94 system (copyright 1995, Gaussian, Inc.),
 the Gaussian 92(TM) system (copyright 1992, Gaussian, Inc.),
 the Gaussian 90(TM) system (copyright 1990, Gaussian, Inc.),
 the Gaussian 88(TM) system (copyright 1988, Gaussian, Inc.),
 the Gaussian 86(TM) system (copyright 1986, Carnegie Mellon
 University), and the Gaussian 82(TM) system (copyright 1983,
 Carnegie Mellon University). Gaussian is a federally registered
 trademark of Gaussian, Inc.
  
 This software contains proprietary and confidential information,
 including trade secrets, belonging to Gaussian, Inc.
  
 This software is provided under written license and may be
 used, copied, transmitted, or stored only in accord with that
 written license.
  
 The following legend is applicable only to US Government
 contracts under FAR:
  
                    RESTRICTED RIGHTS LEGEND
  
 Use, reproduction and disclosure by the US Government is
 subject to restrictions as set forth in subparagraphs (a)
 and (c) of the Commercial Computer Software - Restricted
 Rights clause in FAR 52.227-19.
  
 Gaussian, Inc.
 340 Quinnipiac St., Bldg. 40, Wallingford CT 06492
  
  
 ---------------------------------------------------------------
 Warning -- This program may not be used in any manner that
 competes with the business of Gaussian, Inc. or will provide
 assistance to any competitor of Gaussian, Inc.  The licensee
 of this program is prohibited from giving any competitor of
 Gaussian, Inc. access to this program.  By using this program,
 the user acknowledges that Gaussian, Inc. is engaged in the
 business of creating and licensing software in the field of
 computational chemistry and represents and warrants to the
 licensee that it is not a competitor of Gaussian, Inc. and that
 it will not use this program in any manner prohibited above.
 ---------------------------------------------------------------
  

 Cite this work as:
 Gaussian 16, Revision B.01,
 M. J. Frisch, G. W. Trucks, H. B. Schlegel, G. E. Scuseria, 
 M. A. Robb, J. R. Cheeseman, G. Scalmani, V. Barone, 
 G. A. Petersson, H. Nakatsuji, X. Li, M. Caricato, A. V. Marenich, 
 J. Bloino, B. G. Janesko, R. Gomperts, B. Mennucci, H. P. Hratchian, 
 J. V. Ortiz, A. F. Izmaylov, J. L. Sonnenberg, D. Williams-Young, 
 F. Ding, F. Lipparini, F. Egidi, J. Goings, B. Peng, A. Petrone, 
 T. Henderson, D. Ranasinghe, V. G. Zakrzewski, J. Gao, N. Rega, 
 G. Zheng, W. Liang, M. Hada, M. Ehara, K. Toyota, R. Fukuda, 
 J. Hasegawa, M. Ishida, T. Nakajima, Y. Honda, O. Kitao, H. Nakai, 
 T. Vreven, K. Throssell, J. A. Montgomery, Jr., J. E. Peralta, 
 F. Ogliaro, M. J. Bearpark, J. J. Heyd, E. N. Brothers, K. N. Kudin, 
 V. N. Staroverov, T. A. Keith, R. Kobayashi, J. Normand, 
 K. Raghavachari, A. P. Rendell, J. C. Burant, S. S. Iyengar, 
 J. Tomasi, M. Cossi, J. M. Millam, M. Klene, C. Adamo, R. Cammi, 
 J. W. Ochterski, R. L. Martin, K. Morokuma, O. Farkas, 
 J. B. Foresman, and D. J. Fox, Gaussian, Inc., Wallingford CT, 2016.
 
 ******************************************
 Gaussian 16:  ES64L-G16RevB.01 20-Dec-2017
                14-Feb-2022 
 ******************************************
 %nproc=28
 Will use up to   28 processors via shared memory.
 %mem=120GB
 %chk=hoono_r3_1p486388.chk
 -------------------------------------
 #p SP mp2/aug-cc-pvtz density=current
 -------------------------------------
 1/30=1,38=1,172=1/1;
 2/12=2,17=6,18=5,40=1/2;
 3/5=16,6=1,7=10,11=9,25=1,30=1,71=1/1,2,3;
 4//1;
 5/5=2,38=5/2;
 8/6=4,10=1/1;
 9/15=1,16=-3/6;
 10/5=1,13=10/2;
 6/7=2,8=2,9=2,10=2,22=-1/1;
 99/5=1,9=1/99;
 Leave Link    1 at Mon Feb 14 22:10:36 2022, MaxMem= 16106127360 cpu:               3.0 elap:               0.1
 (Enter /sw/contrib/gaussian/g16/B01/g16/l101.exe)
 -----
 title
 -----
 Symbolic Z-matrix:
 Charge =  0 Multiplicity = 1
 H
 O                    1    r1
 O                    2    r2       1    a1
 N                    3    r3       2    a2       1    d1       0
 O                    4    r4       3    a3       2    d2       0
       Variables:
  r1                    0.96898                  
  r2                    1.45492                  
  r3                    1.48639                  
  r4                    1.17073                  
  a1                   97.59495                  
  a2                  102.29752                  
  a3                  109.06955                  
  d1                  180.                       
  d2                  180.                       
 
 ITRead=  0  0  0  0  0
 MicOpt= -1 -1 -1 -1 -1
 NAtoms=      5 NQM=        5 NQMF=       0 NMMI=      0 NMMIF=      0
                NMic=       0 NMicF=      0.
                    Isotopes and Nuclear Properties:
 (Nuclear quadrupole moments (NQMom) in fm**2, nuclear magnetic moments (NMagM)
  in nuclear magnetons)

  Atom         1           2           3           4           5
 IAtWgt=           1          16          16          14          16
 AtmWgt=   1.0078250  15.9949146  15.9949146  14.0030740  15.9949146
 NucSpn=           1           0           0           2           0
 AtZEff=  -0.0000000  -0.0000000  -0.0000000  -0.0000000  -0.0000000
 NQMom=    0.0000000   0.0000000   0.0000000   2.0440000   0.0000000
 NMagM=    2.7928460   0.0000000   0.0000000   0.4037610   0.0000000
 AtZNuc=   1.0000000   8.0000000   8.0000000   7.0000000   8.0000000
 Leave Link  101 at Mon Feb 14 22:10:36 2022, MaxMem= 16106127360 cpu:               3.1 elap:               0.1
 (Enter /sw/contrib/gaussian/g16/B01/g16/l202.exe)
                          Input orientation:                          
 ---------------------------------------------------------------------
 Center     Atomic      Atomic             Coordinates (Angstroms)
 Number     Number       Type             X           Y           Z
 ---------------------------------------------------------------------
      1          1           0        0.000000    0.000000    0.000000
      2          8           0        0.000000    0.000000    0.968976
      3          8           0        1.442156    0.000000    1.161271
      4          7           0        1.564015    0.000000    2.642656
      5          8           0        2.698130    0.000000    2.933150
 ---------------------------------------------------------------------
                    Distance matrix (angstroms):
                    1          2          3          4          5
     1  H    0.000000
     2  O    0.968976   0.000000
     3  O    1.851584   1.454919   0.000000
     4  N    3.070793   2.290709   1.486388   0.000000
     5  O    3.985383   3.337348   2.171873   1.170729   0.000000
 Stoichiometry    HNO3
 Framework group  CS[SG(HNO3)]
 Deg. of freedom     7
 Full point group                 CS      NOp   2
 Largest Abelian subgroup         CS      NOp   2
 Largest concise Abelian subgroup C1      NOp   1
                         Standard orientation:                         
 ---------------------------------------------------------------------
 Center     Atomic      Atomic             Coordinates (Angstroms)
 Number     Number       Type             X           Y           Z
 ---------------------------------------------------------------------
      1          1           0        1.545671    1.705186    0.000000
      2          8           0        1.453886    0.740567    0.000000
      3          8           0        0.000000    0.685743    0.000000
      4          7           0       -0.261633   -0.777438   -0.000000
      5          8           0       -1.418166   -0.959200   -0.000000
 ---------------------------------------------------------------------
 Rotational constants (GHZ):          53.8075727           4.9414359           4.5258069
 Leave Link  202 at Mon Feb 14 22:10:36 2022, MaxMem= 16106127360 cpu:               2.5 elap:               0.1
 (Enter /sw/contrib/gaussian/g16/B01/g16/l301.exe)
 Standard basis: Aug-CC-pVTZ (5D, 7F)
 Ernie: Thresh=  0.10000D-02 Tol=  0.10000D-05 Strict=F.
 Ernie:  12 primitive shells out of 131 were deleted.
 There are   166 symmetry adapted cartesian basis functions of A'  symmetry.
 There are    79 symmetry adapted cartesian basis functions of A"  symmetry.
 There are   136 symmetry adapted basis functions of A'  symmetry.
 There are    71 symmetry adapted basis functions of A"  symmetry.
   207 basis functions,   315 primitive gaussians,   245 cartesian basis functions
    16 alpha electrons       16 beta electrons
       nuclear repulsion energy       116.1290751090 Hartrees.
 IExCor=    0 DFT=F Ex=HF Corr=None ExCW=0 ScaHFX=  1.000000
 ScaDFX=  1.000000  1.000000  1.000000  1.000000 ScalE2=  1.000000  1.000000
 IRadAn=      5 IRanWt=     -1 IRanGd=            0 ICorTp=0 IEmpDi=  4
 NAtoms=    5 NActive=    5 NUniq=    5 SFac= 1.00D+00 NAtFMM=   60 NAOKFM=F Big=F
 Integral buffers will be    131072 words long.
 Raffenetti 1 integral format.
 Two-electron integral symmetry is turned on.
 Leave Link  301 at Mon Feb 14 22:10:36 2022, MaxMem= 16106127360 cpu:               1.9 elap:               0.1
 (Enter /sw/contrib/gaussian/g16/B01/g16/l302.exe)
 NPDir=0 NMtPBC=     1 NCelOv=     1 NCel=       1 NClECP=     1 NCelD=      1
         NCelK=      1 NCelE2=     1 NClLst=     1 CellRange=     0.0.
 One-electron integrals computed using PRISM.
 One-electron integral symmetry used in STVInt
 NBasis=   207 RedAO= T EigKep=  1.85D-04  NBF=   136    71
 NBsUse=   207 1.00D-06 EigRej= -1.00D+00 NBFU=   136    71
 Leave Link  302 at Mon Feb 14 22:10:36 2022, MaxMem= 16106127360 cpu:               4.8 elap:               0.2
 (Enter /sw/contrib/gaussian/g16/B01/g16/l303.exe)
 DipDrv:  MaxL=1.
 Leave Link  303 at Mon Feb 14 22:10:36 2022, MaxMem= 16106127360 cpu:               0.9 elap:               0.1
 (Enter /sw/contrib/gaussian/g16/B01/g16/l401.exe)
 ExpMin= 2.53D-02 ExpMax= 1.53D+04 ExpMxC= 5.22D+02 IAcc=3 IRadAn=         5 AccDes= 0.00D+00
 Harris functional with IExCor=  205 and IRadAn=       5 diagonalized for initial guess.
 HarFok:  IExCor=  205 AccDes= 0.00D+00 IRadAn=         5 IDoV= 1 UseB2=F ITyADJ=14
 ICtDFT=  3500011 ScaDFX=  1.000000  1.000000  1.000000  1.000000
 FoFCou: FMM=F IPFlag=           0 FMFlag=      100000 FMFlg1=           0
         NFxFlg=           0 DoJE=T BraDBF=F KetDBF=T FulRan=T
         wScrn=  0.000000 ICntrl=       500 IOpCl=  0 I1Cent=   200000004 NGrid=           0
         NMat0=    1 NMatS0=      1 NMatT0=    0 NMatD0=    1 NMtDS0=    0 NMtDT0=    0
 Petite list used in FoFCou.
 Harris En= -279.627564677941    
 JPrj=0 DoOrth=F DoCkMO=F.
 Initial guess orbital symmetries:
       Occupied  (A') (A') (A') (A') (A') (A') (A') (A') (A') (A')
                 (A") (A') (A') (A") (A") (A')
       Virtual   (A") (A') (A') (A') (A') (A') (A") (A') (A') (A')
                 (A") (A') (A") (A') (A') (A") (A') (A") (A') (A')
                 (A') (A') (A') (A') (A') (A") (A') (A") (A') (A')
                 (A") (A') (A") (A') (A') (A") (A') (A") (A') (A')
                 (A") (A') (A") (A') (A") (A') (A') (A') (A") (A")
                 (A') (A') (A') (A') (A") (A') (A") (A') (A") (A')
                 (A') (A') (A") (A') (A') (A") (A') (A") (A') (A')
                 (A") (A') (A') (A") (A") (A') (A') (A") (A') (A')
                 (A') (A") (A') (A") (A') (A") (A') (A") (A') (A')
                 (A') (A") (A') (A") (A') (A") (A") (A') (A') (A')
                 (A") (A') (A") (A') (A') (A') (A") (A') (A") (A')
                 (A") (A') (A') (A') (A") (A') (A') (A') (A") (A')
                 (A") (A') (A') (A") (A") (A') (A') (A") (A") (A')
                 (A') (A') (A') (A") (A") (A') (A") (A') (A') (A')
                 (A') (A") (A") (A') (A') (A") (A') (A') (A') (A')
                 (A') (A") (A') (A") (A') (A") (A') (A") (A") (A')
                 (A') (A") (A') (A") (A') (A") (A") (A") (A') (A')
                 (A") (A') (A") (A') (A') (A") (A") (A") (A') (A')
                 (A') (A') (A') (A') (A') (A') (A') (A') (A') (A')
                 (A')
 The electronic state of the initial guess is 1-A'.
 Leave Link  401 at Mon Feb 14 22:10:36 2022, MaxMem= 16106127360 cpu:               6.8 elap:               0.3
 (Enter /sw/contrib/gaussian/g16/B01/g16/l502.exe)
 Keep R1 ints in memory in symmetry-blocked form, NReq=348887737.
 FoFCou: FMM=F IPFlag=           0 FMFlag=           0 FMFlg1=           0
         NFxFlg=           0 DoJE=F BraDBF=F KetDBF=F FulRan=T
         wScrn=  0.000000 ICntrl=       600 IOpCl=  0 I1Cent=           0 NGrid=           0
         NMat0=    1 NMatS0=  21528 NMatT0=    0 NMatD0=    1 NMtDS0=    0 NMtDT0=    0
 Petite list used in FoFCou.
 Closed shell SCF:
 Using DIIS extrapolation, IDIIS=  1040.
 NGot= 16106127360 LenX= 15988850015 LenY= 15988789549
 Requested convergence on RMS density matrix=1.00D-08 within 128 cycles.
 Requested convergence on MAX density matrix=1.00D-06.
 Requested convergence on             energy=1.00D-06.
 No special actions if energy rises.

 Cycle   1  Pass 1  IDiag  1:
 E= -279.370398672373    
 DIIS: error= 2.74D-02 at cycle   1 NSaved=   1.
 NSaved= 1 IEnMin= 1 EnMin= -279.370398672373     IErMin= 1 ErrMin= 2.74D-02
 ErrMax= 2.74D-02  0.00D+00 EMaxC= 1.00D-01 BMatC= 4.34D-01 BMatP= 4.34D-01
 IDIUse=3 WtCom= 7.26D-01 WtEn= 2.74D-01
 Coeff-Com:  0.100D+01
 Coeff-En:   0.100D+01
 Coeff:      0.100D+01
 Gap=     0.499 Goal=   None    Shift=    0.000
 GapD=    0.499 DampG=2.000 DampE=0.500 DampFc=1.0000 IDamp=-1.
 RMSDP=1.60D-03 MaxDP=1.01D-01              OVMax= 1.06D-01

 Cycle   2  Pass 1  IDiag  1:
 E= -279.452883648503     Delta-E=       -0.082484976130 Rises=F Damp=F
 DIIS: error= 1.75D-02 at cycle   2 NSaved=   2.
 NSaved= 2 IEnMin= 2 EnMin= -279.452883648503     IErMin= 2 ErrMin= 1.75D-02
 ErrMax= 1.75D-02  0.00D+00 EMaxC= 1.00D-01 BMatC= 6.63D-02 BMatP= 4.34D-01
 IDIUse=3 WtCom= 8.25D-01 WtEn= 1.75D-01
 Coeff-Com:  0.185D+00 0.815D+00
 Coeff-En:   0.000D+00 0.100D+01
 Coeff:      0.152D+00 0.848D+00
 Gap=     0.524 Goal=   None    Shift=    0.000
 RMSDP=8.72D-04 MaxDP=3.63D-02 DE=-8.25D-02 OVMax= 7.11D-02

 Cycle   3  Pass 1  IDiag  1:
 E= -279.479538805387     Delta-E=       -0.026655156884 Rises=F Damp=F
 DIIS: error= 1.07D-02 at cycle   3 NSaved=   3.
 NSaved= 3 IEnMin= 3 EnMin= -279.479538805387     IErMin= 3 ErrMin= 1.07D-02
 ErrMax= 1.07D-02  0.00D+00 EMaxC= 1.00D-01 BMatC= 2.74D-02 BMatP= 6.63D-02
 IDIUse=3 WtCom= 8.93D-01 WtEn= 1.07D-01
 Coeff-Com: -0.322D-01 0.382D+00 0.650D+00
 Coeff-En:   0.000D+00 0.244D+00 0.756D+00
 Coeff:     -0.288D-01 0.367D+00 0.661D+00
 Gap=     0.509 Goal=   None    Shift=    0.000
 RMSDP=3.69D-04 MaxDP=1.60D-02 DE=-2.67D-02 OVMax= 3.54D-02

 Cycle   4  Pass 1  IDiag  1:
 E= -279.497698545264     Delta-E=       -0.018159739877 Rises=F Damp=F
 DIIS: error= 1.33D-03 at cycle   4 NSaved=   4.
 NSaved= 4 IEnMin= 4 EnMin= -279.497698545264     IErMin= 4 ErrMin= 1.33D-03
 ErrMax= 1.33D-03  0.00D+00 EMaxC= 1.00D-01 BMatC= 5.24D-04 BMatP= 2.74D-02
 IDIUse=3 WtCom= 9.87D-01 WtEn= 1.33D-02
 Coeff-Com: -0.122D-01 0.663D-01 0.172D+00 0.774D+00
 Coeff-En:   0.000D+00 0.000D+00 0.000D+00 0.100D+01
 Coeff:     -0.121D-01 0.654D-01 0.170D+00 0.777D+00
 Gap=     0.502 Goal=   None    Shift=    0.000
 RMSDP=9.05D-05 MaxDP=2.85D-03 DE=-1.82D-02 OVMax= 1.17D-02

 Cycle   5  Pass 1  IDiag  1:
 E= -279.498404240239     Delta-E=       -0.000705694975 Rises=F Damp=F
 DIIS: error= 7.83D-04 at cycle   5 NSaved=   5.
 NSaved= 5 IEnMin= 5 EnMin= -279.498404240239     IErMin= 5 ErrMin= 7.83D-04
 ErrMax= 7.83D-04  0.00D+00 EMaxC= 1.00D-01 BMatC= 9.23D-05 BMatP= 5.24D-04
 IDIUse=3 WtCom= 9.92D-01 WtEn= 7.83D-03
 Coeff-Com:  0.633D-02-0.759D-01-0.124D+00 0.924D-02 0.118D+01
 Coeff-En:   0.000D+00 0.000D+00 0.000D+00 0.000D+00 0.100D+01
 Coeff:      0.628D-02-0.753D-01-0.123D+00 0.917D-02 0.118D+01
 Gap=     0.502 Goal=   None    Shift=    0.000
 RMSDP=7.99D-05 MaxDP=2.17D-03 DE=-7.06D-04 OVMax= 1.15D-02

 Cycle   6  Pass 1  IDiag  1:
 E= -279.498748196271     Delta-E=       -0.000343956032 Rises=F Damp=F
 DIIS: error= 2.85D-04 at cycle   6 NSaved=   6.
 NSaved= 6 IEnMin= 6 EnMin= -279.498748196271     IErMin= 6 ErrMin= 2.85D-04
 ErrMax= 2.85D-04  0.00D+00 EMaxC= 1.00D-01 BMatC= 1.76D-05 BMatP= 9.23D-05
 IDIUse=3 WtCom= 9.97D-01 WtEn= 2.85D-03
 Coeff-Com:  0.682D-03 0.768D-03 0.360D-02-0.123D+00-0.243D+00 0.136D+01
 Coeff-En:   0.000D+00 0.000D+00 0.000D+00 0.000D+00 0.000D+00 0.100D+01
 Coeff:      0.680D-03 0.766D-03 0.359D-02-0.123D+00-0.243D+00 0.136D+01
 Gap=     0.502 Goal=   None    Shift=    0.000
 RMSDP=4.77D-05 MaxDP=1.33D-03 DE=-3.44D-04 OVMax= 5.80D-03

 Cycle   7  Pass 1  IDiag  1:
 E= -279.498828362399     Delta-E=       -0.000080166128 Rises=F Damp=F
 DIIS: error= 1.42D-04 at cycle   7 NSaved=   7.
 NSaved= 7 IEnMin= 7 EnMin= -279.498828362399     IErMin= 7 ErrMin= 1.42D-04
 ErrMax= 1.42D-04  0.00D+00 EMaxC= 1.00D-01 BMatC= 5.22D-06 BMatP= 1.76D-05
 IDIUse=3 WtCom= 9.99D-01 WtEn= 1.42D-03
 Coeff-Com: -0.974D-03 0.145D-01 0.286D-01-0.242D-01-0.309D+00 0.435D+00
 Coeff-Com:  0.856D+00
 Coeff-En:   0.000D+00 0.000D+00 0.000D+00 0.000D+00 0.000D+00 0.000D+00
 Coeff-En:   0.100D+01
 Coeff:     -0.973D-03 0.145D-01 0.285D-01-0.242D-01-0.308D+00 0.435D+00
 Coeff:      0.856D+00
 Gap=     0.502 Goal=   None    Shift=    0.000
 RMSDP=1.41D-05 MaxDP=4.03D-04 DE=-8.02D-05 OVMax= 1.62D-03

 Cycle   8  Pass 1  IDiag  1:
 E= -279.498838495267     Delta-E=       -0.000010132868 Rises=F Damp=F
 DIIS: error= 5.88D-05 at cycle   8 NSaved=   8.
 NSaved= 8 IEnMin= 8 EnMin= -279.498838495267     IErMin= 8 ErrMin= 5.88D-05
 ErrMax= 5.88D-05  0.00D+00 EMaxC= 1.00D-01 BMatC= 6.69D-07 BMatP= 5.22D-06
 IDIUse=1 WtCom= 1.00D+00 WtEn= 0.00D+00
 Coeff-Com: -0.489D-03 0.384D-02 0.847D-02 0.278D-01-0.404D-01-0.203D+00
 Coeff-Com:  0.144D+00 0.106D+01
 Coeff:     -0.489D-03 0.384D-02 0.847D-02 0.278D-01-0.404D-01-0.203D+00
 Coeff:      0.144D+00 0.106D+01
 Gap=     0.501 Goal=   None    Shift=    0.000
 RMSDP=7.68D-06 MaxDP=2.17D-04 DE=-1.01D-05 OVMax= 8.71D-04

 Cycle   9  Pass 1  IDiag  1:
 E= -279.498840561911     Delta-E=       -0.000002066644 Rises=F Damp=F
 DIIS: error= 1.61D-05 at cycle   9 NSaved=   9.
 NSaved= 9 IEnMin= 9 EnMin= -279.498840561911     IErMin= 9 ErrMin= 1.61D-05
 ErrMax= 1.61D-05  0.00D+00 EMaxC= 1.00D-01 BMatC= 7.15D-08 BMatP= 6.69D-07
 IDIUse=1 WtCom= 1.00D+00 WtEn= 0.00D+00
 Coeff-Com:  0.139D-03-0.190D-02-0.344D-02-0.321D-02 0.356D-01 0.556D-02
 Coeff-Com: -0.159D+00-0.143D+00 0.127D+01
 Coeff:      0.139D-03-0.190D-02-0.344D-02-0.321D-02 0.356D-01 0.556D-02
 Coeff:     -0.159D+00-0.143D+00 0.127D+01
 Gap=     0.502 Goal=   None    Shift=    0.000
 RMSDP=2.04D-06 MaxDP=6.93D-05 DE=-2.07D-06 OVMax= 1.77D-04

 Cycle  10  Pass 1  IDiag  1:
 E= -279.498840731321     Delta-E=       -0.000000169410 Rises=F Damp=F
 DIIS: error= 4.19D-06 at cycle  10 NSaved=  10.
 NSaved=10 IEnMin=10 EnMin= -279.498840731321     IErMin=10 ErrMin= 4.19D-06
 ErrMax= 4.19D-06  0.00D+00 EMaxC= 1.00D-01 BMatC= 5.41D-09 BMatP= 7.15D-08
 IDIUse=1 WtCom= 1.00D+00 WtEn= 0.00D+00
 Coeff-Com:  0.276D-04-0.206D-03-0.249D-03-0.245D-02 0.694D-03 0.183D-01
 Coeff-Com: -0.636D-02-0.689D-01-0.978D-01 0.116D+01
 Coeff:      0.276D-04-0.206D-03-0.249D-03-0.245D-02 0.694D-03 0.183D-01
 Coeff:     -0.636D-02-0.689D-01-0.978D-01 0.116D+01
 Gap=     0.501 Goal=   None    Shift=    0.000
 RMSDP=4.96D-07 MaxDP=2.07D-05 DE=-1.69D-07 OVMax= 3.97D-05

 Cycle  11  Pass 1  IDiag  1:
 E= -279.498840743297     Delta-E=       -0.000000011976 Rises=F Damp=F
 DIIS: error= 2.02D-06 at cycle  11 NSaved=  11.
 NSaved=11 IEnMin=11 EnMin= -279.498840743297     IErMin=11 ErrMin= 2.02D-06
 ErrMax= 2.02D-06  0.00D+00 EMaxC= 1.00D-01 BMatC= 6.35D-10 BMatP= 5.41D-09
 IDIUse=1 WtCom= 1.00D+00 WtEn= 0.00D+00
 Coeff-Com: -0.215D-04 0.248D-03 0.500D-03 0.534D-03-0.408D-02-0.364D-02
 Coeff-Com:  0.187D-01 0.317D-01-0.136D+00-0.152D+00 0.124D+01
 Coeff:     -0.215D-04 0.248D-03 0.500D-03 0.534D-03-0.408D-02-0.364D-02
 Coeff:      0.187D-01 0.317D-01-0.136D+00-0.152D+00 0.124D+01
 Gap=     0.501 Goal=   None    Shift=    0.000
 RMSDP=1.68D-07 MaxDP=5.93D-06 DE=-1.20D-08 OVMax= 1.72D-05

 Cycle  12  Pass 1  IDiag  1:
 E= -279.498840744994     Delta-E=       -0.000000001697 Rises=F Damp=F
 DIIS: error= 6.13D-07 at cycle  12 NSaved=  12.
 NSaved=12 IEnMin=12 EnMin= -279.498840744994     IErMin=12 ErrMin= 6.13D-07
 ErrMax= 6.13D-07  0.00D+00 EMaxC= 1.00D-01 BMatC= 7.63D-11 BMatP= 6.35D-10
 IDIUse=1 WtCom= 1.00D+00 WtEn= 0.00D+00
 Coeff-Com:  0.150D-05-0.324D-04-0.706D-04 0.141D-03 0.115D-02-0.222D-02
 Coeff-Com: -0.416D-02 0.478D-02 0.421D-01-0.124D+00-0.266D+00 0.135D+01
 Coeff:      0.150D-05-0.324D-04-0.706D-04 0.141D-03 0.115D-02-0.222D-02
 Coeff:     -0.416D-02 0.478D-02 0.421D-01-0.124D+00-0.266D+00 0.135D+01
 Gap=     0.501 Goal=   None    Shift=    0.000
 RMSDP=7.16D-08 MaxDP=2.79D-06 DE=-1.70D-09 OVMax= 7.12D-06

 Cycle  13  Pass 1  IDiag  1:
 E= -279.498840745236     Delta-E=       -0.000000000241 Rises=F Damp=F
 DIIS: error= 1.86D-07 at cycle  13 NSaved=  13.
 NSaved=13 IEnMin=13 EnMin= -279.498840745236     IErMin=13 ErrMin= 1.86D-07
 ErrMax= 1.86D-07  0.00D+00 EMaxC= 1.00D-01 BMatC= 4.78D-12 BMatP= 7.63D-11
 IDIUse=1 WtCom= 1.00D+00 WtEn= 0.00D+00
 Coeff-Com:  0.135D-05-0.148D-04-0.236D-04-0.897D-04 0.104D-03 0.816D-03
 Coeff-Com: -0.691D-03-0.352D-02 0.429D-03 0.454D-01-0.416D-01-0.353D+00
 Coeff-Com:  0.135D+01
 Coeff:      0.135D-05-0.148D-04-0.236D-04-0.897D-04 0.104D-03 0.816D-03
 Coeff:     -0.691D-03-0.352D-02 0.429D-03 0.454D-01-0.416D-01-0.353D+00
 Coeff:      0.135D+01
 Gap=     0.501 Goal=   None    Shift=    0.000
 RMSDP=2.08D-08 MaxDP=6.47D-07 DE=-2.41D-10 OVMax= 1.89D-06

 Cycle  14  Pass 1  IDiag  1:
 E= -279.498840745252     Delta-E=       -0.000000000017 Rises=F Damp=F
 DIIS: error= 2.86D-08 at cycle  14 NSaved=  14.
 NSaved=14 IEnMin=14 EnMin= -279.498840745252     IErMin=14 ErrMin= 2.86D-08
 ErrMax= 2.86D-08  0.00D+00 EMaxC= 1.00D-01 BMatC= 2.43D-13 BMatP= 4.78D-12
 IDIUse=1 WtCom= 1.00D+00 WtEn= 0.00D+00
 Coeff-Com: -0.230D-06 0.369D-05 0.673D-05 0.663D-05-0.908D-04 0.411D-04
 Coeff-Com:  0.278D-03 0.309D-03-0.266D-02 0.180D-02 0.182D-01-0.245D-01
 Coeff-Com: -0.215D+00 0.122D+01
 Coeff:     -0.230D-06 0.369D-05 0.673D-05 0.663D-05-0.908D-04 0.411D-04
 Coeff:      0.278D-03 0.309D-03-0.266D-02 0.180D-02 0.182D-01-0.245D-01
 Coeff:     -0.215D+00 0.122D+01
 Gap=     0.501 Goal=   None    Shift=    0.000
 RMSDP=4.21D-09 MaxDP=1.07D-07 DE=-1.66D-11 OVMax= 3.88D-07

 SCF Done:  E(RHF) =  -279.498840745     A.U. after   14 cycles
            NFock= 14  Conv=0.42D-08     -V/T= 2.0025
 KE= 2.788023781624D+02 PE=-8.935776942322D+02 EE= 2.191474002155D+02
 Leave Link  502 at Mon Feb 14 22:10:40 2022, MaxMem= 16106127360 cpu:              54.7 elap:               3.5
 (Enter /sw/contrib/gaussian/g16/B01/g16/l801.exe)
 ExpMin= 2.53D-02 ExpMax= 1.53D+04 ExpMxC= 5.22D+02 IAcc=3 IRadAn=         5 AccDes= 0.00D+00
 HarFok:  IExCor=  205 AccDes= 0.00D+00 IRadAn=         5 IDoV=-2 UseB2=F ITyADJ=14
 ICtDFT= 12500011 ScaDFX=  1.000000  1.000000  1.000000  1.000000
 Largest valence mixing into a core orbital is  2.09D-04
 Largest core mixing into a valence orbital is  3.71D-05
 Range of M.O.s used for correlation:     5   207
 NBasis=   207 NAE=    16 NBE=    16 NFC=     4 NFV=     0
 NROrb=    203 NOA=    12 NOB=    12 NVA=   191 NVB=   191

 **** Warning!!: The largest alpha MO coefficient is  0.17187172D+02

 Leave Link  801 at Mon Feb 14 22:10:40 2022, MaxMem= 16106127360 cpu:               2.3 elap:               0.1
 (Enter /sw/contrib/gaussian/g16/B01/g16/l906.exe)
 Frozen-core derivative calculation, NFC=   4 NFV=   0.
 FulOut=F Deriv=T AODrv=F NAtomX=     5
   MMem=          76  MDisk=          12 MDiskD=          12
  W3Min=      811440 MinDsk=     1524655 NBas6D=         245
 NBas2D=       30762    NTT=       30135    LW2=     3500000
    MDV= 16105580011 MDiskM=      328644 NBas2p=       30466
 Fully in-core method, ICMem=   960157634.
 IMap=   1   2   3   4   5   6   7   8   9  10  11  12  13  14  15  16
 JobTyp=1 Pass  1 fully in-core, NPsUse= 28.
 Compute canonical integrals.
 FoFCou: FMM=F IPFlag=           0 FMFlag=           0 FMFlg1=           0
         NFxFlg=           0 DoJE=F BraDBF=F KetDBF=F FulRan=T
         wScrn=  0.000000 ICntrl=       600 IOpCl=  1 I1Cent=           0 NGrid=           0
         NMat0=    1 NMatS0=  30762 NMatT0=    0 NMatD0=    1 NMtDS0=    0 NMtDT0=    0
 Symmetry not used in FoFCou.
 Spin components of T(2) and E(2):
     alpha-alpha T2 =       0.3435867237D-01 E2=     -0.1227250663D+00
     alpha-beta  T2 =       0.1888203950D+00 E2=     -0.7022903815D+00
     beta-beta   T2 =       0.3435867237D-01 E2=     -0.1227250663D+00
 The integrals were generated   1 times.
 ANorm=    0.1121399902D+01
 E2 =    -0.9477405141D+00 EUMP2 =    -0.28044658125930D+03
 Leave Link  906 at Mon Feb 14 22:10:49 2022, MaxMem= 16106127360 cpu:             245.8 elap:               8.8
 (Enter /sw/contrib/gaussian/g16/B01/g16/l1002.exe)
 Minotr:  Closed shell wavefunction.
          Computing MP2/KS-MP2 derivatives.
          Using Z-Vector for PSCF gradient.
          Skipping F1 and S1 gradient terms here.
          Frozen-core window.
          Direct CPHF calculation.
          Differentiating once with respect to electric field.
                with respect to dipole field.
          Electric field/nuclear overlap derivatives assumed to be zero.
          Using symmetry in CPHF.
          Requested convergence is 1.0D-10 RMS, and 1.0D-09 maximum.
          NewPWx=F KeepS1=T KeepF1=T KeepIn=T MapXYZ=F SortEE=F KeepMc=T.
 Keep R1 ints in memory in symmetry-blocked form, NReq=348888868.
 FoFCou: FMM=F IPFlag=           0 FMFlag=           0 FMFlg1=           0
         NFxFlg=           0 DoJE=F BraDBF=F KetDBF=F FulRan=T
         wScrn=  0.000000 ICntrl=       600 IOpCl=  0 I1Cent=           0 NGrid=           0
         NMat0=    1 NMatS0=  21528 NMatT0=    0 NMatD0=    1 NMtDS0=    0 NMtDT0=    0
 Petite list used in FoFCou.
          MDV=   16106127360 using IRadAn=       5.
          Solving linear equations separately, MaxMat=       0.
          There are     1 degrees of freedom in the 1st order CPHF.  IDoFFX=0 NUNeed=     1.
 LinEq1:  Iter=  0 NonCon=     1 RMS=6.06D-03 Max=1.32D-01 NDo=     1
 AX will form     1 AO Fock derivatives at one time.
 LinEq1:  Iter=  1 NonCon=     1 RMS=1.99D-03 Max=4.01D-02 NDo=     1
 LinEq1:  Iter=  2 NonCon=     1 RMS=9.09D-04 Max=1.45D-02 NDo=     1
 LinEq1:  Iter=  3 NonCon=     1 RMS=4.06D-04 Max=7.83D-03 NDo=     1
 LinEq1:  Iter=  4 NonCon=     1 RMS=1.26D-04 Max=1.88D-03 NDo=     1
 LinEq1:  Iter=  5 NonCon=     1 RMS=4.74D-05 Max=7.49D-04 NDo=     1
 LinEq1:  Iter=  6 NonCon=     1 RMS=2.11D-05 Max=2.44D-04 NDo=     1
 LinEq1:  Iter=  7 NonCon=     1 RMS=8.62D-06 Max=1.76D-04 NDo=     1
 LinEq1:  Iter=  8 NonCon=     1 RMS=3.64D-06 Max=3.79D-05 NDo=     1
 LinEq1:  Iter=  9 NonCon=     1 RMS=9.95D-07 Max=1.51D-05 NDo=     1
 LinEq1:  Iter= 10 NonCon=     1 RMS=2.02D-07 Max=2.26D-06 NDo=     1
 LinEq1:  Iter= 11 NonCon=     1 RMS=3.85D-08 Max=4.52D-07 NDo=     1
 LinEq1:  Iter= 12 NonCon=     1 RMS=9.28D-09 Max=1.43D-07 NDo=     1
 LinEq1:  Iter= 13 NonCon=     1 RMS=1.64D-09 Max=2.94D-08 NDo=     1
 LinEq1:  Iter= 14 NonCon=     1 RMS=3.02D-10 Max=4.53D-09 NDo=     1
 LinEq1:  Iter= 15 NonCon=     0 RMS=5.44D-11 Max=6.46D-10 NDo=     1
 Linear equations converged to 1.000D-10 1.000D-09 after    15 iterations.
 End of Minotr F.D. properties file   721 does not exist.
 End of Minotr F.D. properties file   722 does not exist.
 End of Minotr F.D. properties file   788 does not exist.
 Leave Link 1002 at Mon Feb 14 22:10:53 2022, MaxMem= 16106127360 cpu:              52.5 elap:               3.9
 (Enter /sw/contrib/gaussian/g16/B01/g16/l601.exe)
 Copying SCF densities to generalized density rwf, IOpCl= 0 IROHF=0.

 **********************************************************************

            Population analysis using the MP2 Density.

 **********************************************************************

 Orbital symmetries:
       Occupied  (A') (A') (A') (A') (A') (A') (A') (A') (A') (A')
                 (A") (A') (A") (A') (A") (A')
       Virtual   (A') (A") (A') (A') (A") (A') (A') (A') (A") (A')
                 (A") (A') (A') (A') (A") (A') (A') (A") (A') (A')
                 (A') (A') (A') (A') (A") (A') (A') (A") (A') (A')
                 (A") (A') (A") (A') (A') (A") (A') (A') (A") (A')
                 (A") (A') (A") (A') (A') (A") (A') (A') (A") (A')
                 (A") (A') (A') (A') (A") (A') (A") (A') (A") (A')
                 (A') (A') (A") (A') (A') (A") (A') (A") (A') (A')
                 (A") (A') (A') (A") (A") (A') (A') (A") (A') (A')
                 (A') (A") (A') (A") (A') (A") (A') (A") (A') (A')
                 (A") (A') (A') (A") (A') (A") (A') (A") (A') (A')
                 (A") (A') (A") (A') (A') (A") (A') (A') (A") (A')
                 (A") (A') (A') (A') (A") (A') (A') (A') (A") (A')
                 (A") (A') (A") (A') (A') (A") (A") (A') (A") (A')
                 (A') (A') (A') (A") (A") (A") (A') (A') (A') (A')
                 (A") (A') (A") (A') (A') (A") (A') (A') (A') (A')
                 (A") (A') (A') (A") (A') (A") (A') (A") (A') (A")
                 (A') (A") (A') (A') (A") (A") (A") (A') (A") (A')
                 (A") (A') (A") (A') (A") (A') (A") (A') (A") (A')
                 (A') (A') (A') (A') (A') (A') (A') (A') (A') (A')
                 (A')
 The electronic state is 1-A'.
 Alpha  occ. eigenvalues --  -20.69081 -20.68622 -20.65660 -15.81730  -1.62317
 Alpha  occ. eigenvalues --   -1.49167  -1.24619  -0.95031  -0.77063  -0.75615
 Alpha  occ. eigenvalues --   -0.70742  -0.68076  -0.62176  -0.58791  -0.48226
 Alpha  occ. eigenvalues --   -0.47111
 Alpha virt. eigenvalues --    0.03039   0.06812   0.08541   0.10139   0.13379
 Alpha virt. eigenvalues --    0.13413   0.14466   0.15508   0.17886   0.19401
 Alpha virt. eigenvalues --    0.19967   0.20219   0.22152   0.23659   0.23707
 Alpha virt. eigenvalues --    0.26518   0.28304   0.30449   0.30973   0.34139
 Alpha virt. eigenvalues --    0.34881   0.38692   0.42299   0.43261   0.52596
 Alpha virt. eigenvalues --    0.52802   0.55554   0.58012   0.62392   0.63671
 Alpha virt. eigenvalues --    0.67343   0.68450   0.70728   0.71171   0.72444
 Alpha virt. eigenvalues --    0.73135   0.74572   0.78984   0.79305   0.80923
 Alpha virt. eigenvalues --    0.81470   0.82937   0.86612   0.90818   0.92299
 Alpha virt. eigenvalues --    0.92430   0.95920   0.97367   0.98577   1.01882
 Alpha virt. eigenvalues --    1.05088   1.05336   1.07991   1.11553   1.13854
 Alpha virt. eigenvalues --    1.18807   1.21991   1.23200   1.33578   1.34525
 Alpha virt. eigenvalues --    1.38908   1.44916   1.48759   1.50992   1.53618
 Alpha virt. eigenvalues --    1.56355   1.57471   1.61186   1.66182   1.66966
 Alpha virt. eigenvalues --    1.70058   1.79290   1.82980   1.83003   1.87908
 Alpha virt. eigenvalues --    1.90672   1.95574   1.98668   2.00218   2.06929
 Alpha virt. eigenvalues --    2.11769   2.12821   2.15329   2.21907   2.26170
 Alpha virt. eigenvalues --    2.26688   2.28701   2.31359   2.33731   2.38604
 Alpha virt. eigenvalues --    2.42020   2.42237   2.45154   2.46000   2.47192
 Alpha virt. eigenvalues --    2.49719   2.59201   2.59458   2.61430   2.62227
 Alpha virt. eigenvalues --    2.63681   2.66493   2.75294   2.81119   2.84333
 Alpha virt. eigenvalues --    2.87415   2.89576   2.90115   2.95655   3.01531
 Alpha virt. eigenvalues --    3.05664   3.11429   3.20589   3.22412   3.31194
 Alpha virt. eigenvalues --    3.33434   3.51242   3.63331   3.82527   3.83857
 Alpha virt. eigenvalues --    4.14832   4.17033   4.18062   4.24595   4.35192
 Alpha virt. eigenvalues --    4.39281   4.46528   4.51559   4.65200   4.70600
 Alpha virt. eigenvalues --    4.79704   4.80836   4.83246   4.89270   5.01394
 Alpha virt. eigenvalues --    5.06944   5.09126   5.14580   5.17087   5.23592
 Alpha virt. eigenvalues --    5.26209   5.30267   5.32818   5.34376   5.59728
 Alpha virt. eigenvalues --    5.66856   5.75230   5.83098   5.94382   6.15659
 Alpha virt. eigenvalues --    6.30848   6.32734   6.39076   6.48695   6.49963
 Alpha virt. eigenvalues --    6.61270   6.66910   6.69164   6.76187   6.76350
 Alpha virt. eigenvalues --    6.82414   6.88991   7.00720   7.05268   7.05959
 Alpha virt. eigenvalues --    7.09047   7.11615   7.14231   7.18056   7.21111
 Alpha virt. eigenvalues --    7.24331   7.31250   7.32075   7.33892   7.39094
 Alpha virt. eigenvalues --    7.41760   7.47729   7.59828   7.60347   7.61255
 Alpha virt. eigenvalues --    7.65323   7.77823   7.88062   8.06170   8.30180
 Alpha virt. eigenvalues --    8.40860   8.53155  13.33831  14.25087  15.14008
 Alpha virt. eigenvalues --   16.10167
          Condensed to atoms (all electrons):
               1          2          3          4          5
     1  H    0.590068   0.128563   0.019855   0.012202  -0.000671
     2  O    0.128563   8.321899  -0.175859  -0.085938   0.014818
     3  O    0.019855  -0.175859   8.476634  -0.121730  -0.033982
     4  N    0.012202  -0.085938  -0.121730   6.947454  -0.051624
     5  O   -0.000671   0.014818  -0.033982  -0.051624   8.252676
 Mulliken charges:
               1
     1  H    0.249983
     2  O   -0.203483
     3  O   -0.164919
     4  N    0.299636
     5  O   -0.181217
 Sum of Mulliken charges =  -0.00000
 Mulliken charges with hydrogens summed into heavy atoms:
               1
     2  O    0.046500
     3  O   -0.164919
     4  N    0.299636
     5  O   -0.181217
 Electronic spatial extent (au):  <R**2>=            255.7825
 Charge=              0.0000 electrons
 Dipole moment (field-independent basis, Debye):
    X=              0.3839    Y=              1.2000    Z=              0.0000  Tot=              1.2599
 Quadrupole moment (field-independent basis, Debye-Ang):
   XX=            -22.4221   YY=            -18.4973   ZZ=            -22.0497
   XY=              3.3079   XZ=              0.0000   YZ=             -0.0000
 Traceless Quadrupole moment (field-independent basis, Debye-Ang):
   XX=             -1.4324   YY=              2.4924   ZZ=             -1.0600
   XY=              3.3079   XZ=              0.0000   YZ=             -0.0000
 Octapole moment (field-independent basis, Debye-Ang**2):
  XXX=              2.3243  YYY=             11.2365  ZZZ=             -0.0000  XYY=              7.8607
  XXY=              6.3497  XXZ=              0.0000  XZZ=             -1.6236  YZZ=             -0.9609
  YYZ=              0.0000  XYZ=              0.0000
 Hexadecapole moment (field-independent basis, Debye-Ang**3):
 XXXX=           -158.3221 YYYY=            -92.4548 ZZZZ=            -18.3256 XXXY=            -37.5739
 XXXZ=              0.0000 YYYX=            -31.1716 YYYZ=             -0.0000 ZZZX=             -0.0000
 ZZZY=             -0.0000 XXYY=            -34.3038 XXZZ=            -30.8583 YYZZ=            -21.2600
 XXYZ=             -0.0000 YYXZ=             -0.0000 ZZXY=            -15.3554
 N-N= 1.161290751090D+02 E-N=-8.943838143824D+02  KE= 2.801650195126D+02
 Symmetry A'   KE= 2.662026231908D+02
 Symmetry A"   KE= 1.396239632175D+01
 No NMR shielding tensors so no spin-rotation constants.
 Leave Link  601 at Mon Feb 14 22:10:53 2022, MaxMem= 16106127360 cpu:               4.6 elap:               0.2
 (Enter /sw/contrib/gaussian/g16/B01/g16/l9999.exe)
 1\1\GINC-N2131\SP\RMP2-FC\Aug-CC-pVTZ\H1N1O3\CGAVINH\14-Feb-2022\0\\#p
  SP mp2/aug-cc-pvtz density=current\\title\\0,1\H\O,1,0.96897556\O,2,1
 .45491931,1,97.59494903\N,3,1.4863884089,2,102.29752444,1,180.,0\O,4,1
 .17072885,3,109.06955123,2,180.,0\\Version=ES64L-G16RevB.01\State=1-A'
 \HF=-279.4988407\MP2=-280.4465813\RMSD=4.206e-09\Dipole=-0.1056482,0.,
 -0.4842957\Quadrupole=-1.5025815,-0.7880695,2.2906509,0.,2.140052,0.\P
 G=CS [SG(H1N1O3)]\\@


 ACTORS ARE SO FORTUNATE.  THEY CAN CHOOSE WHETHER
 THEY WILL APPEAR IN A TRAGEDY OR IN COMEDY,
 WHETHER THEY WILL SUFFER OF MAKE MERRY,
 LAUGH OR SHED TEARS.  BUT IN REAL LIFE IT IS DIFFERENT.
 MOST MEN AND WOMEN ARE FORCED TO PERFORM
 PARTS FOR WHICH THEY HAVE NO QUALIFICATIONS.
 THE WORLD IS A STAGE, BUT THE PLAY IS BADLY CAST.

                                   -- OSCAR WILDE
 Job cpu time:       0 days  0 hours  6 minutes 25.2 seconds.
 Elapsed time:       0 days  0 hours  0 minutes 17.7 seconds.
 File lengths (MBytes):  RWF=     22 Int=      0 D2E=      0 Chk=      8 Scr=      1
 Normal termination of Gaussian 16 at Mon Feb 14 22:10:53 2022.
