title                                                                   
SP        RMP2-FC                                                     Aug-CC-pVTZ         
Number of atoms                            I                5
Info1-9                                    I   N=           9
          33          24           0           0           0         110
           1           2           1
Full Title                                 C   N=           1
title       
Route                                      C   N=           4
#p SP mp2/aug-cc-pvtz density=current           
Charge                                     I                0
Multiplicity                               I                1
Number of electrons                        I               32
Number of alpha electrons                  I               16
Number of beta electrons                   I               16
Number of basis functions                  I              207
Number of independent functions            I              207
Number of point charges in /Mol/           I                0
Number of translation vectors              I                0
Atomic numbers                             I   N=           5
           1           8           8           7           8
Nuclear charges                            R   N=           5
  1.00000000E+00  8.00000000E+00  8.00000000E+00  7.00000000E+00  8.00000000E+00
Current cartesian coordinates              R   N=          15
  2.92458536E+00  3.17963199E+00  2.02122501E-31  2.74764006E+00  1.35710303E+00
  1.02864245E-31 -1.48003703E-16  1.25877136E+00  4.34312167E-32 -4.90438715E-01
 -1.45395379E+00 -2.49765115E-32 -2.68407936E+00 -1.74111882E+00 -1.55974836E-31
Number of symbols in /Mol/                 I                0
Force Field                                I                0
Atom Types                                 C   N=           5
                                                            
Int Atom Types                             I   N=           5
           0           0           0           0           0
MM charges                                 R   N=           5
  0.00000000E+00  0.00000000E+00  0.00000000E+00  0.00000000E+00  0.00000000E+00
Integer atomic weights                     I   N=           5
           1          16          16          14          16
Real atomic weights                        R   N=           5
  1.00782504E+00  1.59949146E+01  1.59949146E+01  1.40030740E+01  1.59949146E+01
Atom fragment info                         I   N=           5
           0           0           0           0           0
Atom residue num                           I   N=           5
           0           0           0           0           0
Nuclear spins                              I   N=           5
           1           0           0           2           0
Nuclear ZEff                               R   N=           5
 -1.00000000E+00 -5.60000000E+00 -5.60000000E+00 -4.55000000E+00 -5.60000000E+00
Nuclear ZNuc                               R   N=           5
  1.00000000E+00  8.00000000E+00  8.00000000E+00  7.00000000E+00  8.00000000E+00
Nuclear QMom                               R   N=           5
  0.00000000E+00  0.00000000E+00  0.00000000E+00  2.04400000E+00  0.00000000E+00
Nuclear GFac                               R   N=           5
  2.79284600E+00  0.00000000E+00  0.00000000E+00  4.03761000E-01  0.00000000E+00
MicOpt                                     I   N=           5
          -1          -1          -1          -1          -1
Number of residues                         I                0
Number of secondary structures             I                0
SymInf integers                            I   N=          26
           1           2           1           1           1           1
           1          -1           0           0           0           0
           0           0           0           0           0           0
           0           0           0           0           0           0
           0           0
RotTr to input orientation                 R   N=          12
 -9.95320040E-01 -9.88213327E-17 -9.66334195E-02  9.66334195E-02 -7.23321646E-17
 -9.95320040E-01  9.13691484E-17 -1.00000000E+00  8.15430963E-17  2.60363971E+00
  0.00000000E+00  3.44736413E+00
Number of contracted shells                I               65
Number of primitive shells                 I              119
Pure/Cartesian d shells                    I                0
Pure/Cartesian f shells                    I                0
Highest angular momentum                   I                3
Largest degree of contraction              I                7
Shell types                                I   N=          65
           0           0           0           0           1           1
           1          -2          -2           0           0           0
           0           0           1           1           1           1
          -2          -2          -2          -3          -3           0
           0           0           0           0           1           1
           1           1          -2          -2          -2          -3
          -3           0           0           0           0           0
           1           1           1           1          -2          -2
          -2          -3          -3           0           0           0
           0           0           1           1           1           1
          -2          -2          -2          -3          -3
Number of primitives per shell             I   N=          65
           3           1           1           1           1           1
           1           1           1           7           6           1
           1           1           3           1           1           1
           1           1           1           1           1           7
           6           1           1           1           3           1
           1           1           1           1           1           1
           1           7           6           1           1           1
           3           1           1           1           1           1
           1           1           1           7           6           1
           1           1           3           1           1           1
           1           1           1           1           1
Shell to atom map                          I   N=          65
           1           1           1           1           1           1
           1           1           1           2           2           2
           2           2           2           2           2           2
           2           2           2           2           2           3
           3           3           3           3           3           3
           3           3           3           3           3           3
           3           4           4           4           4           4
           4           4           4           4           4           4
           4           4           4           5           5           5
           5           5           5           5           5           5
           5           5           5           5           5
Primitive exponents                        R   N=         119
  3.38700000E+01  5.09500000E+00  1.15900000E+00  3.25800000E-01  1.02700000E-01
  2.52600000E-02  1.40700000E+00  3.88000000E-01  1.02000000E-01  1.05700000E+00
  2.47000000E-01  1.53300000E+04  2.29900000E+03  5.22400000E+02  1.47300000E+02
  4.75500000E+01  1.67600000E+01  6.20700000E+00  5.22400000E+02  1.47300000E+02
  4.75500000E+01  1.67600000E+01  6.20700000E+00  6.88200000E-01  1.75200000E+00
  2.38400000E-01  7.37600000E-02  3.44600000E+01  7.74900000E+00  2.28000000E+00
  7.15600000E-01  2.14000000E-01  5.97400000E-02  2.31400000E+00  6.45000000E-01
  2.14000000E-01  1.42800000E+00  5.00000000E-01  1.53300000E+04  2.29900000E+03
  5.22400000E+02  1.47300000E+02  4.75500000E+01  1.67600000E+01  6.20700000E+00
  5.22400000E+02  1.47300000E+02  4.75500000E+01  1.67600000E+01  6.20700000E+00
  6.88200000E-01  1.75200000E+00  2.38400000E-01  7.37600000E-02  3.44600000E+01
  7.74900000E+00  2.28000000E+00  7.15600000E-01  2.14000000E-01  5.97400000E-02
  2.31400000E+00  6.45000000E-01  2.14000000E-01  1.42800000E+00  5.00000000E-01
  1.14200000E+04  1.71200000E+03  3.89300000E+02  1.10000000E+02  3.55700000E+01
  1.25400000E+01  4.64400000E+00  3.89300000E+02  1.10000000E+02  3.55700000E+01
  1.25400000E+01  4.64400000E+00  5.11800000E-01  1.29300000E+00  1.78700000E-01
  5.76000000E-02  2.66300000E+01  5.94800000E+00  1.74200000E+00  5.55000000E-01
  1.72500000E-01  4.91000000E-02  1.65400000E+00  4.69000000E-01  1.51000000E-01
  1.09300000E+00  3.64000000E-01  1.53300000E+04  2.29900000E+03  5.22400000E+02
  1.47300000E+02  4.75500000E+01  1.67600000E+01  6.20700000E+00  5.22400000E+02
  1.47300000E+02  4.75500000E+01  1.67600000E+01  6.20700000E+00  6.88200000E-01
  1.75200000E+00  2.38400000E-01  7.37600000E-02  3.44600000E+01  7.74900000E+00
  2.28000000E+00  7.15600000E-01  2.14000000E-01  5.97400000E-02  2.31400000E+00
  6.45000000E-01  2.14000000E-01  1.42800000E+00  5.00000000E-01
Contraction coefficients                   R   N=         119
  2.54948632E-02  1.90362766E-01  8.52162022E-01  1.00000000E+00  1.00000000E+00
  1.00000000E+00  1.00000000E+00  1.00000000E+00  1.00000000E+00  1.00000000E+00
  1.00000000E+00  5.19808943E-04  4.02025621E-03  2.07128267E-02  8.10105536E-02
  2.35962985E-01  4.42653446E-01  3.57064423E-01 -4.42115008E-05 -1.22591041E-03
 -1.05517725E-02 -6.74452633E-02 -1.71198607E-01  1.07329856E+00  1.00000000E+00
  1.00000000E+00  1.00000000E+00  4.11634896E-02  2.57762836E-01  8.02419274E-01
  1.00000000E+00  1.00000000E+00  1.00000000E+00  1.00000000E+00  1.00000000E+00
  1.00000000E+00  1.00000000E+00  1.00000000E+00  5.19808943E-04  4.02025621E-03
  2.07128267E-02  8.10105536E-02  2.35962985E-01  4.42653446E-01  3.57064423E-01
 -4.42115008E-05 -1.22591041E-03 -1.05517725E-02 -6.74452633E-02 -1.71198607E-01
  1.07329856E+00  1.00000000E+00  1.00000000E+00  1.00000000E+00  4.11634896E-02
  2.57762836E-01  8.02419274E-01  1.00000000E+00  1.00000000E+00  1.00000000E+00
  1.00000000E+00  1.00000000E+00  1.00000000E+00  1.00000000E+00  1.00000000E+00
  5.34563860E-04  4.13435660E-03  2.12335358E-02  8.25006224E-02  2.38138871E-01
  4.42551547E-01  3.53757422E-01 -4.89867350E-05 -1.19527323E-03 -1.03490714E-02
 -6.48680190E-02 -1.71552477E-01  1.07289568E+00  1.00000000E+00  1.00000000E+00
  1.00000000E+00  3.98072123E-02  2.49002660E-01  8.10479727E-01  1.00000000E+00
  1.00000000E+00  1.00000000E+00  1.00000000E+00  1.00000000E+00  1.00000000E+00
  1.00000000E+00  1.00000000E+00  5.19808943E-04  4.02025621E-03  2.07128267E-02
  8.10105536E-02  2.35962985E-01  4.42653446E-01  3.57064423E-01 -4.42115008E-05
 -1.22591041E-03 -1.05517725E-02 -6.74452633E-02 -1.71198607E-01  1.07329856E+00
  1.00000000E+00  1.00000000E+00  1.00000000E+00  4.11634896E-02  2.57762836E-01
  8.02419274E-01  1.00000000E+00  1.00000000E+00  1.00000000E+00  1.00000000E+00
  1.00000000E+00  1.00000000E+00  1.00000000E+00  1.00000000E+00
Coordinates of each shell                  R   N=         195
  2.92458536E+00  3.17963199E+00  8.17622142E-32  2.92458536E+00  3.17963199E+00
  8.17622142E-32  2.92458536E+00  3.17963199E+00  8.17622142E-32  2.92458536E+00
  3.17963199E+00  8.17622142E-32  2.92458536E+00  3.17963199E+00  8.17622142E-32
  2.92458536E+00  3.17963199E+00  8.17622142E-32  2.92458536E+00  3.17963199E+00
  8.17622142E-32  2.92458536E+00  3.17963199E+00  8.17622142E-32  2.92458536E+00
  3.17963199E+00  8.17622142E-32  2.74764006E+00  1.35710303E+00  4.68166585E-32
  2.74764006E+00  1.35710303E+00  4.68166585E-32  2.74764006E+00  1.35710303E+00
  4.68166585E-32  2.74764006E+00  1.35710303E+00  4.68166585E-32  2.74764006E+00
  1.35710303E+00  4.68166585E-32  2.74764006E+00  1.35710303E+00  4.68166585E-32
  2.74764006E+00  1.35710303E+00  4.68166585E-32  2.74764006E+00  1.35710303E+00
  4.68166585E-32  2.74764006E+00  1.35710303E+00  4.68166585E-32  2.74764006E+00
  1.35710303E+00  4.68166585E-32  2.74764006E+00  1.35710303E+00  4.68166585E-32
  2.74764006E+00  1.35710303E+00  4.68166585E-32  2.74764006E+00  1.35710303E+00
  4.68166585E-32  2.74764006E+00  1.35710303E+00  4.68166585E-32 -9.12474260E-18
  1.25877136E+00  2.31644140E-32 -9.12474260E-18  1.25877136E+00  2.31644140E-32
 -9.12474260E-18  1.25877136E+00  2.31644140E-32 -9.12474260E-18  1.25877136E+00
  2.31644140E-32 -9.12474260E-18  1.25877136E+00  2.31644140E-32 -9.12474260E-18
  1.25877136E+00  2.31644140E-32 -9.12474260E-18  1.25877136E+00  2.31644140E-32
 -9.12474260E-18  1.25877136E+00  2.31644140E-32 -9.12474260E-18  1.25877136E+00
  2.31644140E-32 -9.12474260E-18  1.25877136E+00  2.31644140E-32 -9.12474260E-18
  1.25877136E+00  2.31644140E-32 -9.12474260E-18  1.25877136E+00  2.31644140E-32
 -9.12474260E-18  1.25877136E+00  2.31644140E-32 -9.12474260E-18  1.25877136E+00
  2.31644140E-32 -4.90438715E-01 -1.45395379E+00 -3.06550426E-32 -4.90438715E-01
 -1.45395379E+00 -3.06550426E-32 -4.90438715E-01 -1.45395379E+00 -3.06550426E-32
 -4.90438715E-01 -1.45395379E+00 -3.06550426E-32 -4.90438715E-01 -1.45395379E+00
 -3.06550426E-32 -4.90438715E-01 -1.45395379E+00 -3.06550426E-32 -4.90438715E-01
 -1.45395379E+00 -3.06550426E-32 -4.90438715E-01 -1.45395379E+00 -3.06550426E-32
 -4.90438715E-01 -1.45395379E+00 -3.06550426E-32 -4.90438715E-01 -1.45395379E+00
 -3.06550426E-32 -4.90438715E-01 -1.45395379E+00 -3.06550426E-32 -4.90438715E-01
 -1.45395379E+00 -3.06550426E-32 -4.90438715E-01 -1.45395379E+00 -3.06550426E-32
 -4.90438715E-01 -1.45395379E+00 -3.06550426E-32 -2.68407936E+00 -1.74111882E+00
 -5.33781870E-32 -2.68407936E+00 -1.74111882E+00 -5.33781870E-32 -2.68407936E+00
 -1.74111882E+00 -5.33781870E-32 -2.68407936E+00 -1.74111882E+00 -5.33781870E-32
 -2.68407936E+00 -1.74111882E+00 -5.33781870E-32 -2.68407936E+00 -1.74111882E+00
 -5.33781870E-32 -2.68407936E+00 -1.74111882E+00 -5.33781870E-32 -2.68407936E+00
 -1.74111882E+00 -5.33781870E-32 -2.68407936E+00 -1.74111882E+00 -5.33781870E-32
 -2.68407936E+00 -1.74111882E+00 -5.33781870E-32 -2.68407936E+00 -1.74111882E+00
 -5.33781870E-32 -2.68407936E+00 -1.74111882E+00 -5.33781870E-32 -2.68407936E+00
 -1.74111882E+00 -5.33781870E-32 -2.68407936E+00 -1.74111882E+00 -5.33781870E-32
Num ILSW                                   I              100
ILSW                                       I   N=         100
           0           0           0           0           2           0
           0           0           0           0           0          -1
           5           0           0           0           0           0
           0           0           0           0           0           0
           1           0           0           0           0           0
           0           0      100000           0          -1           0
           0           0           0           0           0           0
           0           0           0           1           0           0
           0 -2000000000           1           0           0           0
           0           0           4          52           0           0
           0           0           0           0           0           0
           0           0           0           5           0           1
           0           0           0           0           0           0
           0           0           0           0           0           0
           0           0           0           0           0           0
           0           0           0           0           0           0
           0           0           0           0
Num RLSW                                   I               52
RLSW                                       R   N=          52
  1.00000000E+00  1.00000000E+00  1.00000000E+00  1.00000000E+00  1.00000000E+00
  0.00000000E+00  0.00000000E+00  1.00000000E+00  0.00000000E+00  0.00000000E+00
  0.00000000E+00  0.00000000E+00  1.00000000E+00  0.00000000E+00  0.00000000E+00
  0.00000000E+00  0.00000000E+00  1.00000000E+00  0.00000000E+00  0.00000000E+00
  0.00000000E+00  0.00000000E+00  1.00000000E+00  0.00000000E+00  0.00000000E+00
  0.00000000E+00  0.00000000E+00  1.00000000E+00  0.00000000E+00  0.00000000E+00
  0.00000000E+00  0.00000000E+00  1.00000000E+00  0.00000000E+00  0.00000000E+00
  0.00000000E+00  0.00000000E+00  0.00000000E+00  1.00000000E+00  1.00000000E+00
  0.00000000E+00  1.00000000E+00  0.00000000E+00  0.00000000E+00  0.00000000E+00
  0.00000000E+00  0.00000000E+00  0.00000000E+00  0.00000000E+00  0.00000000E+00
  0.00000000E+00  0.00000000E+00
MxBond                                     I                2
NBond                                      I   N=           5
           1           2           2           2           1
IBond                                      I   N=          10
           2           0           1           3           2           4
           3           5           4           0
RBond                                      R   N=          10
  1.00000000E+00  0.00000000E+00  1.00000000E+00  1.00000000E+00  1.00000000E+00
  1.00000000E+00  1.00000000E+00  2.00000000E+00  2.00000000E+00  0.00000000E+00
Virial Ratio                               R      2.002318647440390E+00
SCF Energy                                 R     -2.795016274580067E+02
MP2 Energy                                 R     -2.804465974474612E+02
Total Energy                               R     -2.804465974474612E+02
Post-SCF wavefunction norm                 R      1.120166369609812E+00
RMS Density                                R      3.733645216535873E-09
Job Status                                 I                1
Nuclear derivative order                   I                0
External E-field                           R   N=          35
  0.00000000E+00  0.00000000E+00  0.00000000E+00  0.00000000E+00  0.00000000E+00
  0.00000000E+00  0.00000000E+00  0.00000000E+00  0.00000000E+00  0.00000000E+00
  0.00000000E+00  0.00000000E+00  0.00000000E+00  0.00000000E+00  0.00000000E+00
  0.00000000E+00  0.00000000E+00  0.00000000E+00  0.00000000E+00  0.00000000E+00
  0.00000000E+00  0.00000000E+00  0.00000000E+00  0.00000000E+00  0.00000000E+00
  0.00000000E+00  0.00000000E+00  0.00000000E+00  0.00000000E+00  0.00000000E+00
  0.00000000E+00  0.00000000E+00  0.00000000E+00  0.00000000E+00  0.00000000E+00
IOpCl                                      I                0
IROHF                                      I                0
Alpha Orbital Energies                     R   N=         207
 -2.06903132E+01 -2.06838113E+01 -2.06590883E+01 -1.58132985E+01 -1.62518822E+00
 -1.49472070E+00 -1.25328465E+00 -9.48434538E-01 -7.72023959E-01 -7.59657039E-01
 -7.12063696E-01 -6.79010874E-01 -6.19908195E-01 -5.88214961E-01 -4.84571152E-01
 -4.74107106E-01  2.97353603E-02  7.10915871E-02  8.62063662E-02  1.01689381E-01
  1.33875081E-01  1.33877114E-01  1.44150365E-01  1.54433811E-01  1.78404902E-01
  1.94110043E-01  1.99862527E-01  2.06607524E-01  2.20785866E-01  2.36780890E-01
  2.37566859E-01  2.67018994E-01  2.92309307E-01  3.03483610E-01  3.10228430E-01
  3.43844858E-01  3.49566975E-01  3.87667255E-01  4.22569660E-01  4.32132508E-01
  5.28213020E-01  5.28576185E-01  5.57965247E-01  5.80301200E-01  6.25189340E-01
  6.41067217E-01  6.74813284E-01  6.84671134E-01  7.04456269E-01  7.11704404E-01
  7.23497444E-01  7.29161279E-01  7.43348361E-01  7.92723030E-01  7.93949178E-01
  8.11111303E-01  8.13242090E-01  8.31219416E-01  8.68164326E-01  9.09186176E-01
  9.22401027E-01  9.29202122E-01  9.56385391E-01  9.74885809E-01  9.84965831E-01
  1.01699080E+00  1.05193476E+00  1.05499616E+00  1.08310681E+00  1.11727389E+00
  1.14201148E+00  1.19037804E+00  1.21817371E+00  1.23337283E+00  1.33952606E+00
  1.35257891E+00  1.38819478E+00  1.45562838E+00  1.48756884E+00  1.50746822E+00
  1.53767654E+00  1.56826419E+00  1.57946608E+00  1.61247901E+00  1.66466823E+00
  1.67157827E+00  1.70185462E+00  1.79213460E+00  1.82976242E+00  1.83518291E+00
  1.88102802E+00  1.90775280E+00  1.95674205E+00  1.99365795E+00  2.00275086E+00
  2.08100642E+00  2.12310542E+00  2.13043024E+00  2.15162633E+00  2.22647339E+00
  2.26570218E+00  2.26798697E+00  2.28948157E+00  2.31465273E+00  2.34744492E+00
  2.38635472E+00  2.42705351E+00  2.42832497E+00  2.45099488E+00  2.45871692E+00
  2.47880066E+00  2.50065486E+00  2.58858960E+00  2.59909910E+00  2.62222381E+00
  2.62452114E+00  2.63415312E+00  2.67185857E+00  2.75286260E+00  2.81535527E+00
  2.84906217E+00  2.89340789E+00  2.89341678E+00  2.94068050E+00  2.95225746E+00
  3.02723796E+00  3.06385529E+00  3.12716476E+00  3.20518443E+00  3.22375182E+00
  3.31948909E+00  3.33736404E+00  3.52695611E+00  3.63786768E+00  3.83847500E+00
  3.84409460E+00  4.14966650E+00  4.16823971E+00  4.18491940E+00  4.25811710E+00
  4.34830356E+00  4.39357228E+00  4.46340400E+00  4.52061087E+00  4.65609520E+00
  4.71226531E+00  4.80164338E+00  4.82943384E+00  4.83152029E+00  4.89653732E+00
  5.02485899E+00  5.07627426E+00  5.10733929E+00  5.14625884E+00  5.17324476E+00
  5.24455612E+00  5.27455317E+00  5.30405998E+00  5.33100805E+00  5.35167940E+00
  5.60244788E+00  5.67346266E+00  5.78540804E+00  5.82928760E+00  5.95660442E+00
  6.16968090E+00  6.31112679E+00  6.33589468E+00  6.39492507E+00  6.49649032E+00
  6.50926886E+00  6.61536028E+00  6.66816121E+00  6.70591495E+00  6.75799643E+00
  6.76524134E+00  6.83664066E+00  6.89264883E+00  7.01774956E+00  7.05701629E+00
  7.05928422E+00  7.09212466E+00  7.12301746E+00  7.15189901E+00  7.18258367E+00
  7.22636174E+00  7.24273070E+00  7.30785767E+00  7.32553208E+00  7.34751863E+00
  7.39873556E+00  7.43107500E+00  7.48282267E+00  7.60963229E+00  7.61174648E+00
  7.63185503E+00  7.66993067E+00  7.79981037E+00  7.87961835E+00  8.09441700E+00
  8.31559360E+00  8.40918884E+00  8.54327374E+00  1.34017574E+01  1.43777304E+01
  1.51698260E+01  1.61588845E+01
Alpha MO coefficients                      R   N=       42849
  9.22873918E-05 -6.21596911E-04 -7.27799948E-04 -3.80205284E-06 -2.15785501E-05
 -2.75251209E-05  0.00000000E+00 -4.33412341E-05  5.50730464E-05  0.00000000E+00
  8.72670501E-05  3.69835875E-05  0.00000000E+00  3.17611909E-05  0.00000000E+00
  0.00000000E+00 -5.05057984E-05  2.06011354E-05 -3.73387046E-06  0.00000000E+00
  0.00000000E+00 -1.41351526E-04  1.18212377E-04  4.53778471E-03 -2.80840371E-04
  1.19769544E-05  1.53245597E-03  1.82522697E-03  1.06851638E-04  7.74219305E-06
  0.00000000E+00 -6.19052902E-04 -3.83477855E-05  0.00000000E+00 -1.10243868E-03
  7.69653407E-04  0.00000000E+00 -4.03957961E-04  6.11338629E-05  0.00000000E+00
  2.89802884E-05  0.00000000E+00  0.00000000E+00 -5.45027386E-05  5.81442815E-06
 -3.78947167E-04  0.00000000E+00  0.00000000E+00  7.43984184E-04 -3.13039003E-05
 -4.46326421E-04  0.00000000E+00  0.00000000E+00  2.48765625E-04 -7.20360392E-06
  0.00000000E+00  8.03337791E-05  1.28824333E-05  0.00000000E+00  0.00000000E+00
 -1.09641625E-04 -3.56556318E-06  0.00000000E+00  2.56243708E-04 -2.70462194E-05
  0.00000000E+00  0.00000000E+00 -3.55015942E-04  4.90164457E-05  9.76911106E-01
 -9.21668880E-03  4.33186300E-02  2.02450563E-03 -9.01785113E-04  1.50173474E-03
 -1.34085976E-03  0.00000000E+00 -1.44449836E-03  1.36884255E-03  0.00000000E+00
  8.28654889E-05 -1.14153962E-03  0.00000000E+00 -1.35767843E-04 -1.46719522E-05
  0.00000000E+00  4.68535709E-05  0.00000000E+00  0.00000000E+00 -3.38030482E-05
  2.22300806E-05  7.49015864E-04  0.00000000E+00  0.00000000E+00 -2.37478879E-04
 -3.90685835E-04 -3.67180073E-04  0.00000000E+00  0.00000000E+00 -3.00003997E-04
 -3.56407042E-04  0.00000000E+00  4.71899375E-05 -4.84552643E-05  0.00000000E+00
  0.00000000E+00 -3.94945834E-05 -1.46775021E-05  0.00000000E+00  2.54501476E-05
  2.24222331E-05  0.00000000E+00  0.00000000E+00 -3.03054261E-04 -1.41750201E-04
  3.87937739E-05  4.48958493E-05 -2.62389742E-04 -7.25770862E-04 -1.69588198E-04
 -2.61083323E-05 -9.63261482E-05  0.00000000E+00  2.71935089E-04  6.99718153E-04
  0.00000000E+00 -8.05843937E-04 -4.55631185E-04  0.00000000E+00 -1.24075669E-04
 -3.21318001E-05  0.00000000E+00 -1.82864434E-05  0.00000000E+00  0.00000000E+00
 -3.01139454E-05  1.65373690E-05 -3.26323956E-04  0.00000000E+00  0.00000000E+00
 -8.22906290E-04  1.23638318E-04 -3.60545129E-05  0.00000000E+00  0.00000000E+00
  8.95596082E-05 -1.23254101E-04  0.00000000E+00 -2.02666261E-05 -1.19499036E-04
  0.00000000E+00  0.00000000E+00 -6.20917082E-05 -1.37118963E-04  0.00000000E+00
  4.55423551E-06 -1.53588782E-04  0.00000000E+00  0.00000000E+00  4.30100767E-05
 -4.11387576E-04 -2.65656418E-03  1.30710669E-04 -1.23317111E-04 -2.21012499E-04
  1.57619754E-04 -7.61655843E-06 -2.51061356E-05  0.00000000E+00  7.38075110E-05
  1.50248011E-04  0.00000000E+00  2.48125120E-04  1.86905027E-04  0.00000000E+00
  1.31876110E-04  2.56936370E-05  0.00000000E+00 -3.93800791E-06  0.00000000E+00
  0.00000000E+00 -1.82543019E-05  1.96115213E-06  6.37082718E-06  0.00000000E+00
  0.00000000E+00  9.07630537E-05  7.67543872E-05 -9.55828790E-05  0.00000000E+00
  0.00000000E+00  1.79076498E-04  1.57214690E-04  0.00000000E+00  1.66608553E-05
 -2.33160476E-06  0.00000000E+00  0.00000000E+00 -2.31203483E-06 -1.24447031E-05
  0.00000000E+00 -3.07604425E-05  4.32975959E-05  0.00000000E+00  0.00000000E+00
  9.02692605E-05  8.85222704E-05  3.92832675E-05 -9.75939419E-04 -4.75369636E-04
 -1.07225471E-05 -1.98040008E-05  1.48075151E-05  0.00000000E+00 -4.81031940E-06
  2.63562393E-04  0.00000000E+00 -4.62029653E-05  1.30124169E-04  0.00000000E+00
  2.53190403E-05  0.00000000E+00  0.00000000E+00  1.09436993E-05  1.09409783E-05
 -3.07967570E-05  0.00000000E+00  0.00000000E+00  1.24124975E-05  3.58895253E-05
  1.13275551E-04  8.36313455E-05 -2.72723317E-05  7.23048270E-04  6.58613871E-04
  1.03235200E-05  2.52973187E-06  0.00000000E+00 -7.46373218E-05  1.20583839E-05
  0.00000000E+00  3.41281749E-04  9.18758750E-04  0.00000000E+00  1.31047425E-06
  8.58859786E-05  0.00000000E+00 -2.32466031E-06  0.00000000E+00  0.00000000E+00
 -1.57200721E-07 -4.70963930E-06 -3.43379103E-05  0.00000000E+00  0.00000000E+00
 -1.65361080E-05  7.52621268E-05 -2.35439701E-05  0.00000000E+00  0.00000000E+00
 -2.73281286E-04 -1.74546017E-04  0.00000000E+00  8.79744750E-06  6.21931916E-06
  0.00000000E+00  0.00000000E+00  2.32865663E-06 -1.82058818E-05  0.00000000E+00
 -3.83208377E-05 -3.93738898E-05  0.00000000E+00  0.00000000E+00 -7.46718810E-05
  2.46614264E-05  2.69636930E-03  3.99300921E-05  1.00245425E-04 -9.31085071E-05
 -5.01537884E-04  5.12409858E-06  1.22339193E-05  0.00000000E+00 -5.44306575E-05
 -4.05247231E-05  0.00000000E+00  2.74854398E-04 -1.89100867E-04  0.00000000E+00
 -1.99307902E-04 -6.97941845E-05  0.00000000E+00 -9.04974509E-06  0.00000000E+00
  0.00000000E+00  2.21685000E-05  2.18476292E-05  1.10672947E-05  0.00000000E+00
  0.00000000E+00 -1.12715467E-04 -6.27406497E-05  3.55324418E-06  0.00000000E+00
  0.00000000E+00 -2.21895690E-04 -2.43334830E-04  0.00000000E+00  1.06625961E-06
 -3.72233806E-06  0.00000000E+00  0.00000000E+00 -1.36398461E-06 -1.10416133E-05
  0.00000000E+00 -4.39787287E-05  7.65223969E-06  0.00000000E+00  0.00000000E+00
 -7.84008201E-05  1.78366091E-04  2.57874125E-04  1.45723430E-03 -8.10816712E-05
 -1.47080656E-03  4.18852996E-04 -1.45610317E-04  8.76591204E-07  0.00000000E+00
 -2.08454586E-03 -3.54482566E-04  0.00000000E+00  9.92470652E-04  7.37491020E-04
  0.00000000E+00 -1.63487017E-04  6.86439545E-05  0.00000000E+00 -1.22328316E-04
  0.00000000E+00  0.00000000E+00  2.47920743E-04  8.43375875E-05 -4.48309888E-04
  0.00000000E+00  0.00000000E+00  8.83630538E-04 -9.63576153E-05  4.03148041E-06
  0.00000000E+00  0.00000000E+00 -3.38821067E-04 -1.16795482E-04  0.00000000E+00
 -2.39837360E-06  1.43945306E-05  0.00000000E+00  0.00000000E+00  1.95262924E-05
  1.07243953E-05  0.00000000E+00  1.67814601E-04 -7.53372714E-05  0.00000000E+00
  0.00000000E+00 -2.33500383E-04  4.68628960E-05  9.76646693E-01 -9.85051576E-03
  4.35713739E-02  4.46452791E-03 -4.55412789E-04  2.15912517E-03  4.19087999E-04
  0.00000000E+00 -2.39588890E-03 -5.38463820E-04  0.00000000E+00  1.13272262E-03
 -3.76887922E-06  0.00000000E+00  2.34906144E-06 -4.66728490E-05  0.00000000E+00
 -2.33387816E-04  0.00000000E+00  0.00000000E+00  1.02948168E-04  2.83993337E-05
  3.88825758E-04  0.00000000E+00  0.00000000E+00 -8.51574483E-04 -3.71238450E-04
 -1.59607347E-04  0.00000000E+00  0.00000000E+00  2.50034935E-04  1.93855521E-05
  0.00000000E+00  5.26832136E-05  1.71599485E-05  0.00000000E+00  0.00000000E+00
 -2.20137917E-05 -1.12343976E-05  0.00000000E+00  1.37650691E-04  3.02002833E-06
  0.00000000E+00  0.00000000E+00 -2.00963338E-04 -1.24796661E-04  4.75076849E-04
  2.05329716E-03  1.07622779E-04  1.47955128E-05 -4.08215137E-05 -2.46950388E-04
  0.00000000E+00  1.13943914E-04 -1.27197692E-03  0.00000000E+00  3.18184338E-04
 -3.34633048E-04  0.00000000E+00 -2.51168361E-06  0.00000000E+00  0.00000000E+00
  7.61787651E-05  1.54983117E-05 -1.59678937E-04  0.00000000E+00  0.00000000E+00
 -5.37645264E-04 -2.68908323E-05  9.76829480E-01 -9.16317329E-03  4.34509522E-02
  1.71446196E-04 -1.15936761E-03 -1.56048288E-03  1.44039850E-03  0.00000000E+00
  1.57323183E-03 -1.28275479E-03  0.00000000E+00 -5.65224507E-04 -8.58997621E-04
  0.00000000E+00  5.72283877E-05 -3.81079548E-05  0.00000000E+00  2.92125315E-05
  0.00000000E+00  0.00000000E+00 -1.17709242E-04 -2.76512007E-06  7.56728839E-04
  0.00000000E+00  0.00000000E+00 -2.01098148E-04 -2.35051399E-04 -2.66915363E-04
  0.00000000E+00  0.00000000E+00  1.65695129E-04  1.27273031E-04  0.00000000E+00
 -6.40992681E-05  1.20344536E-06  0.00000000E+00  0.00000000E+00  1.86927090E-05
  1.00858710E-05  0.00000000E+00 -1.23467274E-06  1.22690759E-04  0.00000000E+00
  0.00000000E+00  2.56614603E-04  9.19721193E-05 -4.62950638E-03 -2.10092782E-04