title                                                                   
SP        RMP2-FC                                                     Aug-CC-pVTZ         
Number of atoms                            I                5
Info1-9                                    I   N=           9
          33          24           0           0           0         110
           1           2           1
Full Title                                 C   N=           1
title       
Route                                      C   N=           4
#p SP mp2/aug-cc-pvtz density=current           
Charge                                     I                0
Multiplicity                               I                1
Number of electrons                        I               32
Number of alpha electrons                  I               16
Number of beta electrons                   I               16
Number of basis functions                  I              207
Number of independent functions            I              207
Number of point charges in /Mol/           I                0
Number of translation vectors              I                0
Atomic numbers                             I   N=           5
           1           8           8           7           8
Nuclear charges                            R   N=           5
  1.00000000E+00  8.00000000E+00  8.00000000E+00  7.00000000E+00  8.00000000E+00
Current cartesian coordinates              R   N=          15
  4.23407537E+00  8.03808684E-01  2.82797524E-01  3.02216594E+00 -5.33940058E-01
 -2.48147058E-02  7.56281547E-01  1.02326797E+00 -3.29442325E-02 -1.25301024E+00
 -8.63540864E-01  1.29553811E-02 -3.21132295E+00  1.65794255E-01  1.10732893E-02
Number of symbols in /Mol/                 I                0
Force Field                                I                0
Atom Types                                 C   N=           5
                                                            
Int Atom Types                             I   N=           5
           0           0           0           0           0
MM charges                                 R   N=           5
  0.00000000E+00  0.00000000E+00  0.00000000E+00  0.00000000E+00  0.00000000E+00
Integer atomic weights                     I   N=           5
           1          16          16          14          16
Real atomic weights                        R   N=           5
  1.00782504E+00  1.59949146E+01  1.59949146E+01  1.40030740E+01  1.59949146E+01
Atom fragment info                         I   N=           5
           0           0           0           0           0
Atom residue num                           I   N=           5
           0           0           0           0           0
Nuclear spins                              I   N=           5
           1           0           0           2           0
Nuclear ZEff                               R   N=           5
 -1.00000000E+00 -5.60000000E+00 -5.60000000E+00 -4.55000000E+00 -5.60000000E+00
Nuclear ZNuc                               R   N=           5
  1.00000000E+00  8.00000000E+00  8.00000000E+00  7.00000000E+00  8.00000000E+00
Nuclear QMom                               R   N=           5
  0.00000000E+00  0.00000000E+00  0.00000000E+00  2.04400000E+00  0.00000000E+00
Nuclear GFac                               R   N=           5
  2.79284600E+00  0.00000000E+00  0.00000000E+00  4.03761000E-01  0.00000000E+00
MicOpt                                     I   N=           5
          -1          -1          -1          -1          -1
Number of residues                         I                0
Number of secondary structures             I                0
SymInf integers                            I   N=          26
           1           1           1           1           1           0
           0           0           0           0           0           0
           0           0           0           0           0           0
           0           0           0           0           0           0
           0           0
RotTr to input orientation                 R   N=          12
 -7.43182017E-01  9.81696468E-02 -6.61848329E-01  6.68807498E-01  1.37700699E-01
 -7.30571727E-01  1.94170090E-02 -9.85596894E-01 -1.67993279E-01  2.60360432E+00
 -2.47618341E-01  3.43706369E+00
Number of contracted shells                I               65
Number of primitive shells                 I              119
Pure/Cartesian d shells                    I                0
Pure/Cartesian f shells                    I                0
Highest angular momentum                   I                3
Largest degree of contraction              I                7
Shell types                                I   N=          65
           0           0           0           0           1           1
           1          -2          -2           0           0           0
           0           0           1           1           1           1
          -2          -2          -2          -3          -3           0
           0           0           0           0           1           1
           1           1          -2          -2          -2          -3
          -3           0           0           0           0           0
           1           1           1           1          -2          -2
          -2          -3          -3           0           0           0
           0           0           1           1           1           1
          -2          -2          -2          -3          -3
Number of primitives per shell             I   N=          65
           3           1           1           1           1           1
           1           1           1           7           6           1
           1           1           3           1           1           1
           1           1           1           1           1           7
           6           1           1           1           3           1
           1           1           1           1           1           1
           1           7           6           1           1           1
           3           1           1           1           1           1
           1           1           1           7           6           1
           1           1           3           1           1           1
           1           1           1           1           1
Shell to atom map                          I   N=          65
           1           1           1           1           1           1
           1           1           1           2           2           2
           2           2           2           2           2           2
           2           2           2           2           2           3
           3           3           3           3           3           3
           3           3           3           3           3           3
           3           4           4           4           4           4
           4           4           4           4           4           4
           4           4           4           5           5           5
           5           5           5           5           5           5
           5           5           5           5           5
Primitive exponents                        R   N=         119
  3.38700000E+01  5.09500000E+00  1.15900000E+00  3.25800000E-01  1.02700000E-01
  2.52600000E-02  1.40700000E+00  3.88000000E-01  1.02000000E-01  1.05700000E+00
  2.47000000E-01  1.53300000E+04  2.29900000E+03  5.22400000E+02  1.47300000E+02
  4.75500000E+01  1.67600000E+01  6.20700000E+00  5.22400000E+02  1.47300000E+02
  4.75500000E+01  1.67600000E+01  6.20700000E+00  6.88200000E-01  1.75200000E+00
  2.38400000E-01  7.37600000E-02  3.44600000E+01  7.74900000E+00  2.28000000E+00
  7.15600000E-01  2.14000000E-01  5.97400000E-02  2.31400000E+00  6.45000000E-01
  2.14000000E-01  1.42800000E+00  5.00000000E-01  1.53300000E+04  2.29900000E+03
  5.22400000E+02  1.47300000E+02  4.75500000E+01  1.67600000E+01  6.20700000E+00
  5.22400000E+02  1.47300000E+02  4.75500000E+01  1.67600000E+01  6.20700000E+00
  6.88200000E-01  1.75200000E+00  2.38400000E-01  7.37600000E-02  3.44600000E+01
  7.74900000E+00  2.28000000E+00  7.15600000E-01  2.14000000E-01  5.97400000E-02
  2.31400000E+00  6.45000000E-01  2.14000000E-01  1.42800000E+00  5.00000000E-01
  1.14200000E+04  1.71200000E+03  3.89300000E+02  1.10000000E+02  3.55700000E+01
  1.25400000E+01  4.64400000E+00  3.89300000E+02  1.10000000E+02  3.55700000E+01
  1.25400000E+01  4.64400000E+00  5.11800000E-01  1.29300000E+00  1.78700000E-01
  5.76000000E-02  2.66300000E+01  5.94800000E+00  1.74200000E+00  5.55000000E-01
  1.72500000E-01  4.91000000E-02  1.65400000E+00  4.69000000E-01  1.51000000E-01
  1.09300000E+00  3.64000000E-01  1.53300000E+04  2.29900000E+03  5.22400000E+02
  1.47300000E+02  4.75500000E+01  1.67600000E+01  6.20700000E+00  5.22400000E+02
  1.47300000E+02  4.75500000E+01  1.67600000E+01  6.20700000E+00  6.88200000E-01
  1.75200000E+00  2.38400000E-01  7.37600000E-02  3.44600000E+01  7.74900000E+00
  2.28000000E+00  7.15600000E-01  2.14000000E-01  5.97400000E-02  2.31400000E+00
  6.45000000E-01  2.14000000E-01  1.42800000E+00  5.00000000E-01
Contraction coefficients                   R   N=         119
  2.54948632E-02  1.90362766E-01  8.52162022E-01  1.00000000E+00  1.00000000E+00
  1.00000000E+00  1.00000000E+00  1.00000000E+00  1.00000000E+00  1.00000000E+00
  1.00000000E+00  5.19808943E-04  4.02025621E-03  2.07128267E-02  8.10105536E-02
  2.35962985E-01  4.42653446E-01  3.57064423E-01 -4.42115008E-05 -1.22591041E-03
 -1.05517725E-02 -6.74452633E-02 -1.71198607E-01  1.07329856E+00  1.00000000E+00
  1.00000000E+00  1.00000000E+00  4.11634896E-02  2.57762836E-01  8.02419274E-01
  1.00000000E+00  1.00000000E+00  1.00000000E+00  1.00000000E+00  1.00000000E+00
  1.00000000E+00  1.00000000E+00  1.00000000E+00  5.19808943E-04  4.02025621E-03
  2.07128267E-02  8.10105536E-02  2.35962985E-01  4.42653446E-01  3.57064423E-01
 -4.42115008E-05 -1.22591041E-03 -1.05517725E-02 -6.74452633E-02 -1.71198607E-01
  1.07329856E+00  1.00000000E+00  1.00000000E+00  1.00000000E+00  4.11634896E-02
  2.57762836E-01  8.02419274E-01  1.00000000E+00  1.00000000E+00  1.00000000E+00
  1.00000000E+00  1.00000000E+00  1.00000000E+00  1.00000000E+00  1.00000000E+00
  5.34563860E-04  4.13435660E-03  2.12335358E-02  8.25006224E-02  2.38138871E-01
  4.42551547E-01  3.53757422E-01 -4.89867350E-05 -1.19527323E-03 -1.03490714E-02
 -6.48680190E-02 -1.71552477E-01  1.07289568E+00  1.00000000E+00  1.00000000E+00
  1.00000000E+00  3.98072123E-02  2.49002660E-01  8.10479727E-01  1.00000000E+00
  1.00000000E+00  1.00000000E+00  1.00000000E+00  1.00000000E+00  1.00000000E+00
  1.00000000E+00  1.00000000E+00  5.19808943E-04  4.02025621E-03  2.07128267E-02
  8.10105536E-02  2.35962985E-01  4.42653446E-01  3.57064423E-01 -4.42115008E-05
 -1.22591041E-03 -1.05517725E-02 -6.74452633E-02 -1.71198607E-01  1.07329856E+00
  1.00000000E+00  1.00000000E+00  1.00000000E+00  4.11634896E-02  2.57762836E-01
  8.02419274E-01  1.00000000E+00  1.00000000E+00  1.00000000E+00  1.00000000E+00
  1.00000000E+00  1.00000000E+00  1.00000000E+00  1.00000000E+00
Coordinates of each shell                  R   N=         195
  4.23407537E+00  8.03808684E-01  2.82797524E-01  4.23407537E+00  8.03808684E-01
  2.82797524E-01  4.23407537E+00  8.03808684E-01  2.82797524E-01  4.23407537E+00
  8.03808684E-01  2.82797524E-01  4.23407537E+00  8.03808684E-01  2.82797524E-01
  4.23407537E+00  8.03808684E-01  2.82797524E-01  4.23407537E+00  8.03808684E-01
  2.82797524E-01  4.23407537E+00  8.03808684E-01  2.82797524E-01  4.23407537E+00
  8.03808684E-01  2.82797524E-01  3.02216594E+00 -5.33940058E-01 -2.48147058E-02
  3.02216594E+00 -5.33940058E-01 -2.48147058E-02  3.02216594E+00 -5.33940058E-01
 -2.48147058E-02  3.02216594E+00 -5.33940058E-01 -2.48147058E-02  3.02216594E+00
 -5.33940058E-01 -2.48147058E-02  3.02216594E+00 -5.33940058E-01 -2.48147058E-02
  3.02216594E+00 -5.33940058E-01 -2.48147058E-02  3.02216594E+00 -5.33940058E-01
 -2.48147058E-02  3.02216594E+00 -5.33940058E-01 -2.48147058E-02  3.02216594E+00
 -5.33940058E-01 -2.48147058E-02  3.02216594E+00 -5.33940058E-01 -2.48147058E-02
  3.02216594E+00 -5.33940058E-01 -2.48147058E-02  3.02216594E+00 -5.33940058E-01
 -2.48147058E-02  3.02216594E+00 -5.33940058E-01 -2.48147058E-02  7.56281547E-01
  1.02326797E+00 -3.29442325E-02  7.56281547E-01  1.02326797E+00 -3.29442325E-02
  7.56281547E-01  1.02326797E+00 -3.29442325E-02  7.56281547E-01  1.02326797E+00
 -3.29442325E-02  7.56281547E-01  1.02326797E+00 -3.29442325E-02  7.56281547E-01
  1.02326797E+00 -3.29442325E-02  7.56281547E-01  1.02326797E+00 -3.29442325E-02
  7.56281547E-01  1.02326797E+00 -3.29442325E-02  7.56281547E-01  1.02326797E+00
 -3.29442325E-02  7.56281547E-01  1.02326797E+00 -3.29442325E-02  7.56281547E-01
  1.02326797E+00 -3.29442325E-02  7.56281547E-01  1.02326797E+00 -3.29442325E-02
  7.56281547E-01  1.02326797E+00 -3.29442325E-02  7.56281547E-01  1.02326797E+00
 -3.29442325E-02 -1.25301024E+00 -8.63540864E-01  1.29553811E-02 -1.25301024E+00
 -8.63540864E-01  1.29553811E-02 -1.25301024E+00 -8.63540864E-01  1.29553811E-02
 -1.25301024E+00 -8.63540864E-01  1.29553811E-02 -1.25301024E+00 -8.63540864E-01
  1.29553811E-02 -1.25301024E+00 -8.63540864E-01  1.29553811E-02 -1.25301024E+00
 -8.63540864E-01  1.29553811E-02 -1.25301024E+00 -8.63540864E-01  1.29553811E-02
 -1.25301024E+00 -8.63540864E-01  1.29553811E-02 -1.25301024E+00 -8.63540864E-01
  1.29553811E-02 -1.25301024E+00 -8.63540864E-01  1.29553811E-02 -1.25301024E+00
 -8.63540864E-01  1.29553811E-02 -1.25301024E+00 -8.63540864E-01  1.29553811E-02
 -1.25301024E+00 -8.63540864E-01  1.29553811E-02 -3.21132295E+00  1.65794255E-01
  1.10732893E-02 -3.21132295E+00  1.65794255E-01  1.10732893E-02 -3.21132295E+00
  1.65794255E-01  1.10732893E-02 -3.21132295E+00  1.65794255E-01  1.10732893E-02
 -3.21132295E+00  1.65794255E-01  1.10732893E-02 -3.21132295E+00  1.65794255E-01
  1.10732893E-02 -3.21132295E+00  1.65794255E-01  1.10732893E-02 -3.21132295E+00
  1.65794255E-01  1.10732893E-02 -3.21132295E+00  1.65794255E-01  1.10732893E-02
 -3.21132295E+00  1.65794255E-01  1.10732893E-02 -3.21132295E+00  1.65794255E-01
  1.10732893E-02 -3.21132295E+00  1.65794255E-01  1.10732893E-02 -3.21132295E+00
  1.65794255E-01  1.10732893E-02 -3.21132295E+00  1.65794255E-01  1.10732893E-02
Num ILSW                                   I              100
ILSW                                       I   N=         100
           0           0           0           0           2           0
           0           0           0           0           0          -1
           5           0           0           0           0           0
           0           0           0           0           0           0
           1           0           0           0           0           0
           0           0      100000           0          -1           0
           0           0           0           0           0           0
           0           0           0           1           0           0
           0 -2000000000           1           0           0           0
           0           0           4          52           0           0
           0           0           0           0           0           0
           0           0           0           5           0           1
           0           0           0           0           0           0
           0           0           0           0           0           0
           0           0           0           0           0           0
           0           0           0           0           0           0
           0           0           0           0
Num RLSW                                   I               52
RLSW                                       R   N=          52
  1.00000000E+00  1.00000000E+00  1.00000000E+00  1.00000000E+00  1.00000000E+00
  0.00000000E+00  0.00000000E+00  1.00000000E+00  0.00000000E+00  0.00000000E+00
  0.00000000E+00  0.00000000E+00  1.00000000E+00  0.00000000E+00  0.00000000E+00
  0.00000000E+00  0.00000000E+00  1.00000000E+00  0.00000000E+00  0.00000000E+00
  0.00000000E+00  0.00000000E+00  1.00000000E+00  0.00000000E+00  0.00000000E+00
  0.00000000E+00  0.00000000E+00  1.00000000E+00  0.00000000E+00  0.00000000E+00
  0.00000000E+00  0.00000000E+00  1.00000000E+00  0.00000000E+00  0.00000000E+00
  0.00000000E+00  0.00000000E+00  0.00000000E+00  1.00000000E+00  1.00000000E+00
  0.00000000E+00  1.00000000E+00  0.00000000E+00  0.00000000E+00  0.00000000E+00
  0.00000000E+00  0.00000000E+00  0.00000000E+00  0.00000000E+00  0.00000000E+00
  0.00000000E+00  0.00000000E+00
MxBond                                     I                2
NBond                                      I   N=           5
           1           2           2           2           1
IBond                                      I   N=          10
           2           0           1           3           2           4
           3           5           4           0
RBond                                      R   N=          10
  1.00000000E+00  0.00000000E+00  1.00000000E+00  1.00000000E+00  1.00000000E+00
  1.00000000E+00  1.00000000E+00  2.00000000E+00  2.00000000E+00  0.00000000E+00
Virial Ratio                               R      2.002353500699499E+00
SCF Energy                                 R     -2.795017870948066E+02
MP2 Energy                                 R     -2.804468693927279E+02
Total Energy                               R     -2.804468693927279E+02
Post-SCF wavefunction norm                 R      1.120228188912010E+00
RMS Density                                R      5.104054689050012E-09
Job Status                                 I                1
Nuclear derivative order                   I                0
External E-field                           R   N=          35
  0.00000000E+00  0.00000000E+00  0.00000000E+00  0.00000000E+00  0.00000000E+00
  0.00000000E+00  0.00000000E+00  0.00000000E+00  0.00000000E+00  0.00000000E+00
  0.00000000E+00  0.00000000E+00  0.00000000E+00  0.00000000E+00  0.00000000E+00
  0.00000000E+00  0.00000000E+00  0.00000000E+00  0.00000000E+00  0.00000000E+00
  0.00000000E+00  0.00000000E+00  0.00000000E+00  0.00000000E+00  0.00000000E+00
  0.00000000E+00  0.00000000E+00  0.00000000E+00  0.00000000E+00  0.00000000E+00
  0.00000000E+00  0.00000000E+00  0.00000000E+00  0.00000000E+00  0.00000000E+00
IOpCl                                      I                0
IROHF                                      I                0
Alpha Orbital Energies                     R   N=         207
 -2.06910189E+01 -2.06842676E+01 -2.06601085E+01 -1.58127250E+01 -1.62402722E+00
 -1.49581723E+00 -1.25443164E+00 -9.48085030E-01 -7.72555735E-01 -7.59426460E-01
 -7.12703386E-01 -6.78889296E-01 -6.19976707E-01 -5.88914211E-01 -4.86682815E-01
 -4.71817171E-01  2.95904978E-02  7.16501444E-02  8.59292340E-02  1.01746913E-01
  1.32557116E-01  1.34936274E-01  1.43925940E-01  1.54454600E-01  1.78136803E-01
  1.94111450E-01  1.99329751E-01  2.06580971E-01  2.20803232E-01  2.35368369E-01
  2.37275567E-01  2.66833340E-01  2.92555586E-01  3.00430488E-01  3.11802908E-01
  3.43482605E-01  3.53372614E-01  3.87502957E-01  4.17472252E-01  4.29365947E-01
  5.27168021E-01  5.30840551E-01  5.58586802E-01  5.81068564E-01  6.25963526E-01
  6.38137761E-01  6.73721279E-01  6.83667889E-01  7.06798665E-01  7.12906549E-01
  7.19590659E-01  7.32244949E-01  7.47563620E-01  7.86103666E-01  7.94052283E-01
  8.10527775E-01  8.14024732E-01  8.33736269E-01  8.67717715E-01  9.08352566E-01
  9.16270899E-01  9.33010220E-01  9.55517322E-01  9.71588442E-01  9.88265760E-01
  1.01551380E+00  1.05439994E+00  1.05841331E+00  1.08363430E+00  1.11418856E+00
  1.12991789E+00  1.19823642E+00  1.21906028E+00  1.23400974E+00  1.33702547E+00
  1.35081140E+00  1.38856765E+00  1.45533765E+00  1.49208464E+00  1.50831017E+00
  1.53714965E+00  1.56723452E+00  1.58072576E+00  1.60435544E+00  1.66444562E+00
  1.66682707E+00  1.70576405E+00  1.78932312E+00  1.82970204E+00  1.83695422E+00
  1.88079329E+00  1.90546092E+00  1.95617324E+00  1.98284882E+00  2.02511666E+00
  2.07759273E+00  2.11579567E+00  2.12779221E+00  2.15529555E+00  2.22153444E+00
  2.25819610E+00  2.27157569E+00  2.28733453E+00  2.31221748E+00  2.34356985E+00
  2.38767039E+00  2.40535223E+00  2.44773096E+00  2.45374270E+00  2.46645748E+00
  2.47714689E+00  2.50631343E+00  2.58948375E+00  2.59839267E+00  2.61877946E+00
  2.62625257E+00  2.63767308E+00  2.66569174E+00  2.75106770E+00  2.82848089E+00
  2.84753116E+00  2.88788373E+00  2.89909038E+00  2.91796494E+00  2.95992255E+00
  3.02099939E+00  3.07555494E+00  3.11988146E+00  3.20455527E+00  3.22905722E+00
  3.31596281E+00  3.34078534E+00  3.51387789E+00  3.64749550E+00  3.83742625E+00
  3.84845160E+00  4.13648493E+00  4.16442231E+00  4.20137642E+00  4.25448149E+00
  4.34107680E+00  4.39382382E+00  4.47452081E+00  4.52375916E+00  4.65206856E+00
  4.71107014E+00  4.80418357E+00  4.82280762E+00  4.82646179E+00  4.89684838E+00
  5.02265094E+00  5.07278638E+00  5.10141340E+00  5.14574886E+00  5.18293495E+00
  5.24936805E+00  5.27160032E+00  5.30439177E+00  5.33016199E+00  5.35208475E+00
  5.60038832E+00  5.67358667E+00  5.76213775E+00  5.83208991E+00  5.95475688E+00
  6.16948497E+00  6.31160539E+00  6.34133022E+00  6.39253168E+00  6.49423311E+00
  6.50513247E+00  6.62135269E+00  6.65593035E+00  6.70558797E+00  6.74808485E+00
  6.76937205E+00  6.83486046E+00  6.89833929E+00  7.01161810E+00  7.05444751E+00
  7.05781554E+00  7.09396429E+00  7.12690875E+00  7.14640800E+00  7.18867704E+00
  7.22487306E+00  7.23858235E+00  7.30424560E+00  7.32246730E+00  7.35579111E+00
  7.39260758E+00  7.42861265E+00  7.48609569E+00  7.60650458E+00  7.61820285E+00
  7.63255204E+00  7.67373532E+00  7.78537288E+00  7.88430980E+00  8.09164603E+00
  8.31181389E+00  8.40042296E+00  8.54140258E+00  1.33854353E+01  1.43996330E+01
  1.51606901E+01  1.61504486E+01
Alpha MO coefficients                      R   N=       42849
  8.80688095E-05 -5.58580031E-04 -6.91443477E-04 -5.21665311E-06 -3.39201021E-05
 -9.20295476E-06 -1.43168601E-05 -2.21684521E-05  6.45617586E-05  2.48739365E-05
  7.49660980E-05 -1.81120820E-05  3.66118231E-05  3.15042720E-05  2.74051753E-06
  2.36680311E-07  7.31281719E-06  5.58849483E-05 -3.15341924E-06  9.85896310E-06
  1.52483610E-05  7.57968026E-05  1.60829496E-04  4.58631483E-03 -2.80842521E-04
  1.51601831E-05  1.51208781E-03  1.80846257E-03  9.01081228E-05 -5.66965926E-05
  3.06329571E-06 -5.20444485E-04  3.33385318E-04 -1.60192249E-05 -4.59854451E-04
  1.24686368E-03  5.15645085E-05 -2.75387611E-04  2.91895569E-04  4.84200172E-06
  2.87375106E-05 -1.81295728E-06 -5.65045724E-07 -1.06610679E-05  5.37149621E-05
 -3.76635041E-04  4.11419105E-06 -9.13568548E-06  1.88875438E-04 -7.22366417E-04
 -4.31817142E-04  5.85071679E-05  2.35826727E-05  6.89785604E-05 -2.58248930E-04
  8.15490467E-06  6.98303476E-05 -3.87181664E-05 -2.00852646E-06 -6.29442286E-06
  3.36040416E-05  1.04805572E-04 -1.99325843E-05  1.96623734E-04 -1.69274407E-04
  1.51221394E-05  1.39125251E-05  1.65950286E-04  3.16097216E-04  9.76912014E-01
 -9.21517869E-03  4.33172569E-02  2.04526774E-03 -9.51533816E-04  3.96010385E-04
 -1.97779716E-03  4.93448134E-05 -3.32365956E-04  1.96626219E-03 -4.41994578E-05
 -6.32880077E-04 -9.77418854E-04  1.96603564E-05 -1.41329877E-04  7.45385268E-05
  7.06531269E-06  4.66055482E-05  1.97180511E-06  1.10455258E-06  9.69870032E-06
  3.96264569E-05  7.45428477E-04  5.15590129E-06  1.61707722E-05 -4.39271864E-04
  1.10532371E-04 -3.52576680E-04  2.23851374E-05 -1.54564122E-06 -4.52873189E-04
  1.86804081E-04  4.23717702E-06  8.62192035E-06 -6.78720260E-05 -1.46995013E-06
 -1.34241868E-06 -1.25658955E-06  4.23063146E-05 -2.74815235E-06  3.44574537E-05
  4.20812336E-06  5.67894540E-06  1.89185433E-07 -3.18125121E-05  3.33534891E-04
  3.86525187E-05  4.32297282E-05 -2.64910254E-04 -6.81210579E-04 -1.07710243E-04
 -7.98255200E-05 -6.22532648E-05  2.58206641E-06  6.41851720E-04  4.08700045E-04
 -1.72074209E-05 -9.98394274E-04  1.13508103E-04  1.11456248E-05 -1.01801130E-04
  5.84377959E-05 -8.30362435E-06 -1.82334644E-05 -2.21273203E-06 -1.17872283E-06
  5.61999409E-06  3.28664543E-05 -3.27841042E-04 -6.62708139E-06 -1.88261733E-05
 -1.17527833E-04  8.27883304E-04 -4.07595977E-05  3.13104724E-05 -2.97836283E-06
 -7.71543509E-05 -1.41249766E-04  5.72906845E-06 -8.80214853E-05 -8.38906797E-05
  2.60633884E-07 -6.91545520E-06 -1.08609345E-04  1.04923387E-04  5.87518069E-06
 -8.50722503E-05 -1.23642691E-04  7.64669558E-06 -5.33382375E-06 -4.12236895E-04
  9.78882142E-05 -2.51153508E-03  1.21661513E-04 -1.20975857E-04 -2.82416213E-04
  1.09665232E-04 -2.27679024E-05 -1.79238272E-05  4.83680652E-07  1.52025076E-04
  9.26709272E-05 -2.60362846E-06  3.05919272E-04  3.19565501E-05  2.46063822E-05
  1.06505843E-04 -6.28112997E-05  6.45786988E-06 -3.35381309E-06 -9.71070006E-07
 -4.80621300E-07 -4.35458694E-06  1.74171687E-05  6.51565923E-07  4.69445228E-06
  2.44209900E-06  1.09167585E-04 -5.03682310E-05 -1.02749093E-04  7.98221178E-06
 -3.97081548E-06  2.07892854E-04 -1.12207540E-04  1.58374557E-07  1.07097070E-05
 -1.23028700E-05  3.72057143E-07 -2.76188325E-07 -9.97483121E-06  8.20917554E-06
 -3.69970916E-06 -8.42873217E-07  5.66287956E-05  2.73996230E-06  1.82988878E-06
  5.79938410E-05 -1.09825182E-04  3.67376176E-05 -9.44403114E-04 -4.66685403E-04
 -1.10755686E-05 -7.28985073E-06  2.48211950E-05 -1.64377160E-06  1.50101343E-04
  2.05425234E-04  5.17374055E-05  4.09478296E-05  1.27624980E-04  2.95243018E-05
  2.35946327E-05  1.00168198E-06 -1.06355580E-05  1.22724065E-05 -7.18950558E-06
 -2.75119879E-05 -4.11907198E-06  2.83237052E-06  3.65867839E-05  7.77040505E-08
  1.12607406E-04  8.36526933E-05 -2.74965372E-05  7.16290829E-04  6.30987318E-04
  1.02409370E-05 -3.56635277E-06 -2.11361016E-06 -5.37746076E-05  5.12067384E-05
  1.63127199E-05  7.76346154E-04  4.96309336E-04  1.05371834E-04  5.30871267E-05
  5.98517765E-05  6.50539938E-06 -2.48319152E-06 -1.01493691E-06 -9.83571833E-07
 -5.58733312E-06 -1.66411351E-06 -3.10190734E-05  1.42895288E-05  1.42641562E-05
  7.28667369E-05  3.92929136E-05 -1.10206642E-05  4.17147723E-05  4.35649818E-05
 -2.28891632E-04  1.96984713E-04  9.79498800E-07  1.07834013E-05 -7.15710238E-07
  5.42799138E-07 -7.38888571E-07 -1.83227997E-05  3.59724352E-06 -1.27933627E-05
 -5.08401706E-05 -3.23120617E-06  2.36379366E-06  1.22697502E-05  4.43373108E-05
  6.28347971E-05  2.55072445E-03  4.07215075E-05  8.81754920E-05 -6.74829001E-05
 -4.71938642E-04  1.50280945E-05  8.70412505E-06 -6.55658170E-07 -8.17143671E-05
 -9.01363951E-06  2.58392939E-06  7.97061085E-05 -2.84840847E-04 -2.33292362E-05
 -1.87773672E-04  6.24107474E-05 -8.81628093E-06 -8.80332394E-06 -4.76332476E-07
  1.06700163E-07  2.55070910E-05 -1.55277374E-05  4.44299968E-06  8.27231449E-07
 -1.08010807E-06 -7.88051936E-05  9.80821548E-05 -5.03608264E-06 -1.41117488E-05
  4.79928317E-06 -2.57711257E-04  1.52285041E-04 -1.24484455E-07  2.10594142E-06
 -2.39198257E-06 -4.40211088E-07 -7.30187814E-07 -1.31759352E-05  3.01589741E-06
  7.10538787E-07 -3.45397299E-05  3.02675346E-05 -5.06065606E-07  4.46266247E-06
  2.01448349E-04  8.93142794E-06  2.58507895E-04  1.46379845E-03 -7.85202252E-05
 -1.52950961E-03  4.07527308E-04 -1.16265622E-04  8.59461905E-05 -1.39615167E-07
 -1.91832786E-03  9.16805254E-04 -2.81153418E-06  1.28208173E-03  1.97882099E-06
 -7.76787829E-06 -1.02152766E-04  1.48322374E-04  1.16160307E-06 -1.23383576E-04
  1.13606133E-07  6.41230391E-07  1.61140583E-04 -2.04655933E-04 -4.42558684E-04
  9.84718152E-06 -3.11753069E-06  2.02228770E-04 -8.79410268E-04  1.07862671E-05
  1.75780187E-05 -7.17922507E-06 -2.18898134E-04  2.81848113E-04 -5.15751514E-07
  7.96347721E-06  1.30313571E-05 -2.59990625E-07  4.85844101E-07  6.47569210E-06
 -2.20768351E-05  3.41008132E-06  9.07018218E-05 -1.55355922E-04  2.96311126E-06
  3.85759589E-06  1.19007344E-04  2.13706667E-04  9.76649484E-01 -9.84793561E-03
  4.35678751E-02  4.48934577E-03 -4.48760760E-04  2.01302381E-03 -8.90127416E-04
 -5.34289560E-07 -2.27602876E-03  9.32816981E-04  1.22931559E-06  9.10285237E-04
 -6.83971411E-04  1.74889100E-05 -2.21467772E-05 -3.84668559E-05  3.94392150E-06
 -2.32306672E-04 -1.96473233E-06 -4.76380464E-06  6.06137631E-05 -8.87793272E-05
  3.90585292E-04  8.33645844E-07 -3.26958694E-06 -6.45125670E-04  6.74048859E-04
 -1.54226774E-04  3.23886775E-06 -5.40574509E-06  9.01369135E-05 -2.42074728E-04
 -6.05189170E-07  5.25251316E-05 -1.69015840E-05  7.35560578E-07  9.88097136E-07
 -5.16779764E-06  2.53904242E-05  1.19561324E-06  1.16603013E-04 -7.43808547E-05
 -1.59283745E-07 -2.37126181E-06 -6.98245588E-05  2.24946735E-04  4.72090503E-04
  2.09124143E-03  1.45064121E-04  1.44988173E-05 -1.78916730E-04 -1.69769250E-04
 -4.82094165E-05 -6.62624652E-04 -1.08131652E-03 -2.17126509E-04  3.61874683E-05
 -4.49532073E-04 -3.19941100E-05 -2.43257027E-06 -6.09190373E-06 -3.16245015E-06
  3.80801335E-05 -6.54829185E-05 -1.40553612E-04  8.59207965E-05  1.03721291E-04
 -1.74920725E-04  4.93200857E-04  9.76830550E-01 -9.16315043E-03  4.34489119E-02
  1.46117609E-04 -1.16056509E-03 -4.12430318E-04  2.07013197E-03  2.64574474E-04
  5.13104997E-04 -1.95559381E-03 -2.44729329E-04 -9.79606546E-04 -3.61903254E-04
 -1.05385075E-04  3.89995047E-05 -5.51785376E-05  6.03394869E-07  3.11956039E-05
  4.66220732E-06  9.33840298E-06 -3.72883300E-05  1.10970070E-04  7.33184632E-04
 -1.20422311E-04 -1.22644742E-04 -2.85458841E-04  1.37196497E-04 -2.66250798E-04
 -3.11467472E-05 -2.69465290E-06  1.74956235E-04 -1.34889218E-04  5.47596532E-06
 -5.08519977E-05  3.77441496E-05  7.14913417E-06 -1.79760665E-06  2.58932047E-06
 -2.21320650E-05  2.97518727E-05  6.32838149E-05  9.18835538E-05 -1.00186543E-05
 -4.37798915E-05 -3.43240512E-08 -2.67225151E-04 -4.67778944E-03 -2.08162198E-04