title                                                                   
SP        RMP2-FC                                                     Aug-CC-pVTZ         
Number of atoms                            I                5
Info1-9                                    I   N=           9
          33          24           0           0           0         110
           1           2           1
Full Title                                 C   N=           1
title       
Route                                      C   N=           4
#p SP mp2/aug-cc-pvtz density=current           
Charge                                     I                0
Multiplicity                               I                1
Number of electrons                        I               32
Number of alpha electrons                  I               16
Number of beta electrons                   I               16
Number of basis functions                  I              207
Number of independent functions            I              207
Number of point charges in /Mol/           I                0
Number of translation vectors              I                0
Atomic numbers                             I   N=           5
           1           8           8           7           8
Nuclear charges                            R   N=           5
  1.00000000E+00  8.00000000E+00  8.00000000E+00  7.00000000E+00  8.00000000E+00
Current cartesian coordinates              R   N=          15
  2.92977090E+00  3.21048173E+00  1.14199332E-31  2.74778645E+00  1.36523645E+00
  3.30068419E-31 -1.55083771E-16  1.27108430E+00  1.40110146E-31 -4.94564454E-01
 -1.44089170E+00 -2.36639862E-31 -2.68126392E+00 -1.77685073E+00 -7.00897914E-31
Number of symbols in /Mol/                 I                0
Force Field                                I                0
Atom Types                                 C   N=           5
                                                            
Int Atom Types                             I   N=           5
           0           0           0           0           0
MM charges                                 R   N=           5
  0.00000000E+00  0.00000000E+00  0.00000000E+00  0.00000000E+00  0.00000000E+00
Integer atomic weights                     I   N=           5
           1          16          16          14          16
Real atomic weights                        R   N=           5
  1.00782504E+00  1.59949146E+01  1.59949146E+01  1.40030740E+01  1.59949146E+01
Atom fragment info                         I   N=           5
           0           0           0           0           0
Atom residue num                           I   N=           5
           0           0           0           0           0
Nuclear spins                              I   N=           5
           1           0           0           2           0
Nuclear ZEff                               R   N=           5
 -1.00000000E+00 -5.60000000E+00 -5.60000000E+00 -4.55000000E+00 -5.60000000E+00
Nuclear ZNuc                               R   N=           5
  1.00000000E+00  8.00000000E+00  8.00000000E+00  7.00000000E+00  8.00000000E+00
Nuclear QMom                               R   N=           5
  0.00000000E+00  0.00000000E+00  0.00000000E+00  2.04400000E+00  0.00000000E+00
Nuclear GFac                               R   N=           5
  2.79284600E+00  0.00000000E+00  0.00000000E+00  4.03761000E-01  0.00000000E+00
MicOpt                                     I   N=           5
          -1          -1          -1          -1          -1
Number of residues                         I                0
Number of secondary structures             I                0
SymInf integers                            I   N=          26
           1           2           1           1           1           1
           1          -1           0           0           0           0
           0           0           0           0           0           0
           0           0           0           0           0           0
           0           0
RotTr to input orientation                 R   N=          12
 -9.95171900E-01 -8.63328946E-16 -9.81472819E-02  9.81472819E-02  7.72819974E-16
 -9.95171900E-01  9.35010888E-16 -1.00000000E+00 -6.84355332E-16  2.60052562E+00
  0.00000000E+00  3.48253025E+00
Number of contracted shells                I               65
Number of primitive shells                 I              119
Pure/Cartesian d shells                    I                0
Pure/Cartesian f shells                    I                0
Highest angular momentum                   I                3
Largest degree of contraction              I                7
Shell types                                I   N=          65
           0           0           0           0           1           1
           1          -2          -2           0           0           0
           0           0           1           1           1           1
          -2          -2          -2          -3          -3           0
           0           0           0           0           1           1
           1           1          -2          -2          -2          -3
          -3           0           0           0           0           0
           1           1           1           1          -2          -2
          -2          -3          -3           0           0           0
           0           0           1           1           1           1
          -2          -2          -2          -3          -3
Number of primitives per shell             I   N=          65
           3           1           1           1           1           1
           1           1           1           7           6           1
           1           1           3           1           1           1
           1           1           1           1           1           7
           6           1           1           1           3           1
           1           1           1           1           1           1
           1           7           6           1           1           1
           3           1           1           1           1           1
           1           1           1           7           6           1
           1           1           3           1           1           1
           1           1           1           1           1
Shell to atom map                          I   N=          65
           1           1           1           1           1           1
           1           1           1           2           2           2
           2           2           2           2           2           2
           2           2           2           2           2           3
           3           3           3           3           3           3
           3           3           3           3           3           3
           3           4           4           4           4           4
           4           4           4           4           4           4
           4           4           4           5           5           5
           5           5           5           5           5           5
           5           5           5           5           5
Primitive exponents                        R   N=         119
  3.38700000E+01  5.09500000E+00  1.15900000E+00  3.25800000E-01  1.02700000E-01
  2.52600000E-02  1.40700000E+00  3.88000000E-01  1.02000000E-01  1.05700000E+00
  2.47000000E-01  1.53300000E+04  2.29900000E+03  5.22400000E+02  1.47300000E+02
  4.75500000E+01  1.67600000E+01  6.20700000E+00  5.22400000E+02  1.47300000E+02
  4.75500000E+01  1.67600000E+01  6.20700000E+00  6.88200000E-01  1.75200000E+00
  2.38400000E-01  7.37600000E-02  3.44600000E+01  7.74900000E+00  2.28000000E+00
  7.15600000E-01  2.14000000E-01  5.97400000E-02  2.31400000E+00  6.45000000E-01
  2.14000000E-01  1.42800000E+00  5.00000000E-01  1.53300000E+04  2.29900000E+03
  5.22400000E+02  1.47300000E+02  4.75500000E+01  1.67600000E+01  6.20700000E+00
  5.22400000E+02  1.47300000E+02  4.75500000E+01  1.67600000E+01  6.20700000E+00
  6.88200000E-01  1.75200000E+00  2.38400000E-01  7.37600000E-02  3.44600000E+01
  7.74900000E+00  2.28000000E+00  7.15600000E-01  2.14000000E-01  5.97400000E-02
  2.31400000E+00  6.45000000E-01  2.14000000E-01  1.42800000E+00  5.00000000E-01
  1.14200000E+04  1.71200000E+03  3.89300000E+02  1.10000000E+02  3.55700000E+01
  1.25400000E+01  4.64400000E+00  3.89300000E+02  1.10000000E+02  3.55700000E+01
  1.25400000E+01  4.64400000E+00  5.11800000E-01  1.29300000E+00  1.78700000E-01
  5.76000000E-02  2.66300000E+01  5.94800000E+00  1.74200000E+00  5.55000000E-01
  1.72500000E-01  4.91000000E-02  1.65400000E+00  4.69000000E-01  1.51000000E-01
  1.09300000E+00  3.64000000E-01  1.53300000E+04  2.29900000E+03  5.22400000E+02
  1.47300000E+02  4.75500000E+01  1.67600000E+01  6.20700000E+00  5.22400000E+02
  1.47300000E+02  4.75500000E+01  1.67600000E+01  6.20700000E+00  6.88200000E-01
  1.75200000E+00  2.38400000E-01  7.37600000E-02  3.44600000E+01  7.74900000E+00
  2.28000000E+00  7.15600000E-01  2.14000000E-01  5.97400000E-02  2.31400000E+00
  6.45000000E-01  2.14000000E-01  1.42800000E+00  5.00000000E-01
Contraction coefficients                   R   N=         119
  2.54948632E-02  1.90362766E-01  8.52162022E-01  1.00000000E+00  1.00000000E+00
  1.00000000E+00  1.00000000E+00  1.00000000E+00  1.00000000E+00  1.00000000E+00
  1.00000000E+00  5.19808943E-04  4.02025621E-03  2.07128267E-02  8.10105536E-02
  2.35962985E-01  4.42653446E-01  3.57064423E-01 -4.42115008E-05 -1.22591041E-03
 -1.05517725E-02 -6.74452633E-02 -1.71198607E-01  1.07329856E+00  1.00000000E+00
  1.00000000E+00  1.00000000E+00  4.11634896E-02  2.57762836E-01  8.02419274E-01
  1.00000000E+00  1.00000000E+00  1.00000000E+00  1.00000000E+00  1.00000000E+00
  1.00000000E+00  1.00000000E+00  1.00000000E+00  5.19808943E-04  4.02025621E-03
  2.07128267E-02  8.10105536E-02  2.35962985E-01  4.42653446E-01  3.57064423E-01
 -4.42115008E-05 -1.22591041E-03 -1.05517725E-02 -6.74452633E-02 -1.71198607E-01
  1.07329856E+00  1.00000000E+00  1.00000000E+00  1.00000000E+00  4.11634896E-02
  2.57762836E-01  8.02419274E-01  1.00000000E+00  1.00000000E+00  1.00000000E+00
  1.00000000E+00  1.00000000E+00  1.00000000E+00  1.00000000E+00  1.00000000E+00
  5.34563860E-04  4.13435660E-03  2.12335358E-02  8.25006224E-02  2.38138871E-01
  4.42551547E-01  3.53757422E-01 -4.89867350E-05 -1.19527323E-03 -1.03490714E-02
 -6.48680190E-02 -1.71552477E-01  1.07289568E+00  1.00000000E+00  1.00000000E+00
  1.00000000E+00  3.98072123E-02  2.49002660E-01  8.10479727E-01  1.00000000E+00
  1.00000000E+00  1.00000000E+00  1.00000000E+00  1.00000000E+00  1.00000000E+00
  1.00000000E+00  1.00000000E+00  5.19808943E-04  4.02025621E-03  2.07128267E-02
  8.10105536E-02  2.35962985E-01  4.42653446E-01  3.57064423E-01 -4.42115008E-05
 -1.22591041E-03 -1.05517725E-02 -6.74452633E-02 -1.71198607E-01  1.07329856E+00
  1.00000000E+00  1.00000000E+00  1.00000000E+00  4.11634896E-02  2.57762836E-01
  8.02419274E-01  1.00000000E+00  1.00000000E+00  1.00000000E+00  1.00000000E+00
  1.00000000E+00  1.00000000E+00  1.00000000E+00  1.00000000E+00
Coordinates of each shell                  R   N=         195
  2.92977090E+00  3.21048173E+00  0.00000000E+00  2.92977090E+00  3.21048173E+00
  0.00000000E+00  2.92977090E+00  3.21048173E+00  0.00000000E+00  2.92977090E+00
  3.21048173E+00  0.00000000E+00  2.92977090E+00  3.21048173E+00  0.00000000E+00
  2.92977090E+00  3.21048173E+00  0.00000000E+00  2.92977090E+00  3.21048173E+00
  0.00000000E+00  2.92977090E+00  3.21048173E+00  0.00000000E+00  2.92977090E+00
  3.21048173E+00  0.00000000E+00  2.74778645E+00  1.36523645E+00  0.00000000E+00
  2.74778645E+00  1.36523645E+00  0.00000000E+00  2.74778645E+00  1.36523645E+00
  0.00000000E+00  2.74778645E+00  1.36523645E+00  0.00000000E+00  2.74778645E+00
  1.36523645E+00  0.00000000E+00  2.74778645E+00  1.36523645E+00  0.00000000E+00
  2.74778645E+00  1.36523645E+00  0.00000000E+00  2.74778645E+00  1.36523645E+00
  0.00000000E+00  2.74778645E+00  1.36523645E+00  0.00000000E+00  2.74778645E+00
  1.36523645E+00  0.00000000E+00  2.74778645E+00  1.36523645E+00  0.00000000E+00
  2.74778645E+00  1.36523645E+00  0.00000000E+00  2.74778645E+00  1.36523645E+00
  0.00000000E+00  2.74778645E+00  1.36523645E+00  0.00000000E+00 -3.20351944E-18
  1.27108430E+00  0.00000000E+00 -3.20351944E-18  1.27108430E+00  0.00000000E+00
 -3.20351944E-18  1.27108430E+00  0.00000000E+00 -3.20351944E-18  1.27108430E+00
  0.00000000E+00 -3.20351944E-18  1.27108430E+00  0.00000000E+00 -3.20351944E-18
  1.27108430E+00  0.00000000E+00 -3.20351944E-18  1.27108430E+00  0.00000000E+00
 -3.20351944E-18  1.27108430E+00  0.00000000E+00 -3.20351944E-18  1.27108430E+00
  0.00000000E+00 -3.20351944E-18  1.27108430E+00  0.00000000E+00 -3.20351944E-18
  1.27108430E+00  0.00000000E+00 -3.20351944E-18  1.27108430E+00  0.00000000E+00
 -3.20351944E-18  1.27108430E+00  0.00000000E+00 -3.20351944E-18  1.27108430E+00
  0.00000000E+00 -4.94564454E-01 -1.44089170E+00  0.00000000E+00 -4.94564454E-01
 -1.44089170E+00  0.00000000E+00 -4.94564454E-01 -1.44089170E+00  0.00000000E+00
 -4.94564454E-01 -1.44089170E+00  0.00000000E+00 -4.94564454E-01 -1.44089170E+00
  0.00000000E+00 -4.94564454E-01 -1.44089170E+00  0.00000000E+00 -4.94564454E-01
 -1.44089170E+00  0.00000000E+00 -4.94564454E-01 -1.44089170E+00  0.00000000E+00
 -4.94564454E-01 -1.44089170E+00  0.00000000E+00 -4.94564454E-01 -1.44089170E+00
  0.00000000E+00 -4.94564454E-01 -1.44089170E+00  0.00000000E+00 -4.94564454E-01
 -1.44089170E+00  0.00000000E+00 -4.94564454E-01 -1.44089170E+00  0.00000000E+00
 -4.94564454E-01 -1.44089170E+00  0.00000000E+00 -2.68126392E+00 -1.77685073E+00
  0.00000000E+00 -2.68126392E+00 -1.77685073E+00  0.00000000E+00 -2.68126392E+00
 -1.77685073E+00  0.00000000E+00 -2.68126392E+00 -1.77685073E+00  0.00000000E+00
 -2.68126392E+00 -1.77685073E+00  0.00000000E+00 -2.68126392E+00 -1.77685073E+00
  0.00000000E+00 -2.68126392E+00 -1.77685073E+00  0.00000000E+00 -2.68126392E+00
 -1.77685073E+00  0.00000000E+00 -2.68126392E+00 -1.77685073E+00  0.00000000E+00
 -2.68126392E+00 -1.77685073E+00  0.00000000E+00 -2.68126392E+00 -1.77685073E+00
  0.00000000E+00 -2.68126392E+00 -1.77685073E+00  0.00000000E+00 -2.68126392E+00
 -1.77685073E+00  0.00000000E+00 -2.68126392E+00 -1.77685073E+00  0.00000000E+00
Num ILSW                                   I              100
ILSW                                       I   N=         100
           0           0           0           0           2           0
           0           0           0           0           0          -1
           5           0           0           0           0           0
           0           0           0           0           0           0
           1           0           0           0           0           0
           0           0      100000           0          -1           0
           0           0           0           0           0           0
           0           0           0           1           0           0
           0 -2000000000           1           0           0           0
           0           0           4          52           0           0
           0           0           0           0           0           0
           0           0           0           5           0           1
           0           0           0           0           0           0
           0           0           0           0           0           0
           0           0           0           0           0           0
           0           0           0           0           0           0
           0           0           0           0
Num RLSW                                   I               52
RLSW                                       R   N=          52
  1.00000000E+00  1.00000000E+00  1.00000000E+00  1.00000000E+00  1.00000000E+00
  0.00000000E+00  0.00000000E+00  1.00000000E+00  0.00000000E+00  0.00000000E+00
  0.00000000E+00  0.00000000E+00  1.00000000E+00  0.00000000E+00  0.00000000E+00
  0.00000000E+00  0.00000000E+00  1.00000000E+00  0.00000000E+00  0.00000000E+00
  0.00000000E+00  0.00000000E+00  1.00000000E+00  0.00000000E+00  0.00000000E+00
  0.00000000E+00  0.00000000E+00  1.00000000E+00  0.00000000E+00  0.00000000E+00
  0.00000000E+00  0.00000000E+00  1.00000000E+00  0.00000000E+00  0.00000000E+00
  0.00000000E+00  0.00000000E+00  0.00000000E+00  1.00000000E+00  1.00000000E+00
  0.00000000E+00  1.00000000E+00  0.00000000E+00  0.00000000E+00  0.00000000E+00
  0.00000000E+00  0.00000000E+00  0.00000000E+00  0.00000000E+00  0.00000000E+00
  0.00000000E+00  0.00000000E+00
MxBond                                     I                2
NBond                                      I   N=           5
           1           2           2           2           1
IBond                                      I   N=          10
           2           0           1           3           2           4
           3           5           4           0
RBond                                      R   N=          10
  1.00000000E+00  0.00000000E+00  1.00000000E+00  1.00000000E+00  1.00000000E+00
  1.00000000E+00  1.00000000E+00  2.00000000E+00  2.00000000E+00  0.00000000E+00
Virial Ratio                               R      2.002431837690724E+00
SCF Energy                                 R     -2.795009695386352E+02
MP2 Energy                                 R     -2.804466017649096E+02
Total Energy                               R     -2.804466017649096E+02
Post-SCF wavefunction norm                 R      1.120436229391769E+00
RMS Density                                R      3.792819111922470E-09
Job Status                                 I                1
Nuclear derivative order                   I                0
External E-field                           R   N=          35
  0.00000000E+00  0.00000000E+00  0.00000000E+00  0.00000000E+00  0.00000000E+00
  0.00000000E+00  0.00000000E+00  0.00000000E+00  0.00000000E+00  0.00000000E+00
  0.00000000E+00  0.00000000E+00  0.00000000E+00  0.00000000E+00  0.00000000E+00
  0.00000000E+00  0.00000000E+00  0.00000000E+00  0.00000000E+00  0.00000000E+00
  0.00000000E+00  0.00000000E+00  0.00000000E+00  0.00000000E+00  0.00000000E+00
  0.00000000E+00  0.00000000E+00  0.00000000E+00  0.00000000E+00  0.00000000E+00
  0.00000000E+00  0.00000000E+00  0.00000000E+00  0.00000000E+00  0.00000000E+00
IOpCl                                      I                0
IROHF                                      I                0
Alpha Orbital Energies                     R   N=         207
 -2.06905578E+01 -2.06840628E+01 -2.06609180E+01 -1.58125830E+01 -1.62375046E+00
 -1.49427219E+00 -1.25205414E+00 -9.47786024E-01 -7.71825387E-01 -7.58179725E-01
 -7.11507868E-01 -6.77475112E-01 -6.20095531E-01 -5.88841174E-01 -4.84809314E-01
 -4.72168052E-01  2.93917845E-02  7.18599565E-02  8.59973527E-02  1.01750022E-01
  1.33960001E-01  1.34047184E-01  1.43541194E-01  1.54086788E-01  1.78427055E-01
  1.94207130E-01  1.99847180E-01  2.06358845E-01  2.20856331E-01  2.35759469E-01
  2.37493557E-01  2.65733975E-01  2.93188959E-01  3.03348913E-01  3.10003064E-01
  3.43537933E-01  3.50398131E-01  3.87017026E-01  4.20308672E-01  4.30249047E-01
  5.27432732E-01  5.29406743E-01  5.58548859E-01  5.81837910E-01  6.26096335E-01
  6.38317268E-01  6.74624272E-01  6.83321860E-01  7.06438139E-01  7.10625611E-01
  7.23151434E-01  7.29413476E-01  7.44441187E-01  7.91880343E-01  7.91906664E-01
  8.10148115E-01  8.12859784E-01  8.30429147E-01  8.68408639E-01  9.08313404E-01
  9.21583809E-01  9.26123348E-01  9.55542356E-01  9.78923992E-01  9.82955306E-01
  1.01427172E+00  1.05254557E+00  1.05483125E+00  1.08126419E+00  1.11582997E+00
  1.13974513E+00  1.18988901E+00  1.22000751E+00  1.23030813E+00  1.33919967E+00
  1.35115814E+00  1.38640833E+00  1.45012033E+00  1.48435257E+00  1.50697041E+00
  1.53838214E+00  1.56688274E+00  1.58049275E+00  1.61195058E+00  1.66507527E+00
  1.67054731E+00  1.70318812E+00  1.79262079E+00  1.83093650E+00  1.83500142E+00
  1.87870034E+00  1.90849053E+00  1.94937536E+00  1.99173733E+00  2.00380022E+00
  2.07760172E+00  2.11944306E+00  2.13217141E+00  2.15028391E+00  2.22378352E+00
  2.26384429E+00  2.26588799E+00  2.28955945E+00  2.31317814E+00  2.34318663E+00
  2.38404858E+00  2.42439070E+00  2.42778175E+00  2.45424189E+00  2.46261199E+00
  2.47609864E+00  2.50048005E+00  2.59358505E+00  2.59611786E+00  2.62142646E+00
  2.62350565E+00  2.63498633E+00  2.66991064E+00  2.75738270E+00  2.82927773E+00
  2.85524054E+00  2.88364942E+00  2.89455783E+00  2.92295534E+00  2.95817662E+00
  3.02295213E+00  3.06737621E+00  3.12362144E+00  3.20494090E+00  3.22574248E+00
  3.31503224E+00  3.34047912E+00  3.51755597E+00  3.63816455E+00  3.83133690E+00
  3.83828029E+00  4.13787588E+00  4.15871751E+00  4.18124184E+00  4.25643283E+00
  4.34117575E+00  4.39046086E+00  4.45962476E+00  4.51449914E+00  4.66063423E+00
  4.70569294E+00  4.80016210E+00  4.80984540E+00  4.82578089E+00  4.89555603E+00
  5.02331371E+00  5.07744772E+00  5.09039050E+00  5.13501131E+00  5.17272639E+00
  5.22838608E+00  5.26294687E+00  5.30535391E+00  5.30631378E+00  5.35266166E+00
  5.60029180E+00  5.67369304E+00  5.76624331E+00  5.82290816E+00  5.95615844E+00
  6.17140275E+00  6.30848307E+00  6.34057473E+00  6.39168640E+00  6.49364038E+00
  6.50540319E+00  6.61187767E+00  6.66918960E+00  6.69931028E+00  6.75833774E+00
  6.76372494E+00  6.83237052E+00  6.89839834E+00  7.00545059E+00  7.05469528E+00
  7.05561178E+00  7.08823803E+00  7.12118011E+00  7.14710993E+00  7.17912095E+00
  7.22201054E+00  7.22484309E+00  7.29535707E+00  7.32515660E+00  7.34480464E+00
  7.39992260E+00  7.42924551E+00  7.48458478E+00  7.60707305E+00  7.61582313E+00
  7.62466330E+00  7.66241396E+00  7.77726547E+00  7.88679632E+00  8.08704828E+00
  8.31007838E+00  8.39426466E+00  8.54040645E+00  1.33875381E+01  1.43760895E+01
  1.49943741E+01  1.61525993E+01
Alpha MO coefficients                      R   N=       42849
  9.05837046E-05 -6.35060672E-04 -7.19655451E-04 -4.29146734E-06 -2.25115721E-05
 -2.79715462E-05  0.00000000E+00 -1.87808115E-05  7.29709026E-05  0.00000000E+00
  1.04450030E-04  4.10928414E-05  0.00000000E+00  3.15602893E-05  0.00000000E+00
  0.00000000E+00 -4.84230510E-05  1.83989397E-05 -2.78787309E-06  0.00000000E+00
  0.00000000E+00 -1.36323756E-04  1.03533170E-04  4.78323876E-03 -2.79245520E-04
  2.35439762E-05  1.56042944E-03  1.81097641E-03  1.05942647E-04  7.62949741E-06
  0.00000000E+00 -6.16723055E-04 -3.01785823E-05  0.00000000E+00 -1.13619209E-03
  7.83181969E-04  0.00000000E+00 -4.08546088E-04  5.26987606E-05  0.00000000E+00
  2.84507244E-05  0.00000000E+00  0.00000000E+00 -5.41378097E-05  6.51768655E-06
 -3.77478565E-04  0.00000000E+00  0.00000000E+00  7.36171646E-04 -3.73385429E-05
 -4.46933335E-04  0.00000000E+00  0.00000000E+00  2.44570646E-04 -2.56186766E-05
  0.00000000E+00  7.96619578E-05  1.25320126E-05  0.00000000E+00  0.00000000E+00
 -1.09861477E-04 -3.65278275E-06  0.00000000E+00  2.56874471E-04 -2.64158302E-05
  0.00000000E+00  0.00000000E+00 -3.47597357E-04  4.73302911E-05  9.76910394E-01
 -9.21485103E-03  4.33179019E-02  2.03181391E-03 -9.15668078E-04  1.49303851E-03
 -1.35550344E-03  0.00000000E+00 -1.43375446E-03  1.38426119E-03  0.00000000E+00
  7.95796400E-05 -1.16022408E-03  0.00000000E+00 -1.24685720E-04 -1.26171350E-06
  0.00000000E+00  4.61957633E-05  0.00000000E+00  0.00000000E+00 -3.52129959E-05
  2.11720971E-05  7.46783392E-04  0.00000000E+00  0.00000000E+00 -2.30622003E-04
 -3.89459136E-04 -3.59961169E-04  0.00000000E+00  0.00000000E+00 -3.12139125E-04
 -3.73854205E-04  0.00000000E+00  4.74270028E-05 -4.88321763E-05  0.00000000E+00
  0.00000000E+00 -3.88477021E-05 -1.58257476E-05  0.00000000E+00  2.28377321E-05
  2.13417558E-05  0.00000000E+00  0.00000000E+00 -3.04503394E-04 -1.38882760E-04
  3.90950402E-05  4.58237910E-05 -2.64672003E-04 -7.06034402E-04 -1.45168986E-04
 -2.72650783E-05 -9.75680694E-05  0.00000000E+00  2.73140665E-04  7.10652381E-04
  0.00000000E+00 -8.39605299E-04 -4.81955355E-04  0.00000000E+00 -1.30547396E-04
 -2.87254639E-05  0.00000000E+00 -1.81066621E-05  0.00000000E+00  0.00000000E+00
 -2.96798782E-05  1.52075313E-05 -3.28673438E-04  0.00000000E+00  0.00000000E+00
 -8.29495635E-04  1.28018293E-04 -3.52215528E-05  0.00000000E+00  0.00000000E+00
  9.58864826E-05 -1.18021661E-04  0.00000000E+00 -2.10046723E-05 -1.20286578E-04
  0.00000000E+00  0.00000000E+00 -6.25705387E-05 -1.37462916E-04  0.00000000E+00
  4.35632346E-06 -1.51870441E-04  0.00000000E+00  0.00000000E+00  4.46702750E-05
 -4.20448665E-04 -2.61186415E-03  1.21606496E-04 -1.25234223E-04 -2.42668562E-04
  1.41530756E-04 -8.15748813E-06 -2.79404823E-05  0.00000000E+00  7.00102077E-05
  1.64763604E-04  0.00000000E+00  2.35896529E-04  2.02517265E-04  0.00000000E+00
  1.28811020E-04  2.66988504E-05  0.00000000E+00 -3.38534353E-06  0.00000000E+00
  0.00000000E+00 -1.79197471E-05  1.14767210E-06  5.10497519E-07  0.00000000E+00
  0.00000000E+00  8.11031583E-05  8.85515356E-05 -1.00701731E-04  0.00000000E+00
  0.00000000E+00  1.67241764E-04  1.62802059E-04  0.00000000E+00  1.57697405E-05
 -3.52704429E-06  0.00000000E+00  0.00000000E+00 -4.24030885E-06 -1.19417533E-05
  0.00000000E+00 -3.35423275E-05  4.53512258E-05  0.00000000E+00  0.00000000E+00
  8.39681715E-05  9.02234957E-05  3.96105655E-05 -9.63696052E-04 -4.68161326E-04
 -1.03858264E-05 -2.17931001E-05  1.46605044E-05  0.00000000E+00  2.99503957E-06
  2.74879695E-04  0.00000000E+00 -4.04477743E-05  1.31427922E-04  0.00000000E+00
  2.57124127E-05  0.00000000E+00  0.00000000E+00  1.29823147E-05  1.10331102E-05
 -2.61456025E-05  0.00000000E+00  0.00000000E+00  1.21144512E-05  3.29845668E-05
  1.16915976E-04  8.21833238E-05 -2.82026121E-05  7.26478897E-04  6.34273194E-04
  1.02540487E-05  2.49623993E-06  0.00000000E+00 -7.35883096E-05  1.34587372E-05
  0.00000000E+00  3.29260098E-04  8.86550706E-04  0.00000000E+00  4.40503241E-06
  7.94888948E-05  0.00000000E+00 -2.22105516E-06  0.00000000E+00  0.00000000E+00
  1.24991900E-07 -6.03246524E-06 -3.54871913E-05  0.00000000E+00  0.00000000E+00
 -2.04424609E-05  8.23399208E-05 -2.25229644E-05  0.00000000E+00  0.00000000E+00
 -2.65681643E-04 -1.62136044E-04  0.00000000E+00  9.20987468E-06  6.04739207E-06
  0.00000000E+00  0.00000000E+00  2.78725527E-06 -1.88208602E-05  0.00000000E+00
 -4.02095335E-05 -3.83076424E-05  0.00000000E+00  0.00000000E+00 -7.60590864E-05
  1.88755618E-05  2.65071490E-03  3.92172809E-05  9.26780590E-05 -6.90837749E-05
 -4.67131657E-04  7.26185482E-06  1.57050899E-05  0.00000000E+00 -6.17424617E-05
 -5.52114139E-05  0.00000000E+00  2.35921234E-04 -1.86745278E-04  0.00000000E+00
 -1.86802696E-04 -6.33939486E-05  0.00000000E+00 -8.71963074E-06  0.00000000E+00
  0.00000000E+00  2.23905185E-05  1.97604301E-05  4.34437501E-06  0.00000000E+00
  0.00000000E+00 -1.17228168E-04 -4.63406369E-05 -4.37445030E-06  0.00000000E+00
  0.00000000E+00 -2.21346839E-04 -2.05799529E-04  0.00000000E+00  3.22118923E-06
 -5.58839387E-07  0.00000000E+00  0.00000000E+00  1.71910281E-06 -1.35381844E-05
  0.00000000E+00 -4.63430859E-05  3.58771020E-06  0.00000000E+00  0.00000000E+00
 -7.61464396E-05  1.87865928E-04  2.58677725E-04  1.46508159E-03 -7.80921844E-05
 -1.53916307E-03  4.01684496E-04 -1.44539458E-04  1.31424830E-07  0.00000000E+00
 -2.08871271E-03 -4.03567959E-04  0.00000000E+00  1.03581017E-03  7.62530997E-04
  0.00000000E+00 -1.69945475E-04  5.76098753E-05  0.00000000E+00 -1.23345689E-04
  0.00000000E+00  0.00000000E+00  2.43082299E-04  9.40516787E-05 -4.42113661E-04
  0.00000000E+00  0.00000000E+00  8.98843723E-04 -6.62750671E-05  1.16843026E-05
  0.00000000E+00  0.00000000E+00 -3.38291135E-04 -1.23843226E-04  0.00000000E+00
 -1.35476417E-06  1.52756148E-05  0.00000000E+00  0.00000000E+00  1.88972855E-05
  1.34490295E-05  0.00000000E+00  1.64822163E-04 -7.16724668E-05  0.00000000E+00
  0.00000000E+00 -2.40817894E-04  4.15191806E-05  9.76649099E-01 -9.84825610E-03
  4.35681010E-02  4.50019016E-03 -4.46954939E-04  2.14803136E-03  4.80604271E-04
  0.00000000E+00 -2.38385002E-03 -6.03206393E-04  0.00000000E+00  1.13951481E-03
 -4.24399229E-06  0.00000000E+00  4.20208631E-06 -4.32262596E-05  0.00000000E+00
 -2.32321012E-04  0.00000000E+00  0.00000000E+00  1.02714407E-04  3.18314634E-05
  3.90487932E-04  0.00000000E+00  0.00000000E+00 -8.33971477E-04 -4.18935928E-04
 -1.53861076E-04  0.00000000E+00  0.00000000E+00  2.56442440E-04  1.66548229E-05
  0.00000000E+00  5.22718102E-05  1.76749967E-05  0.00000000E+00  0.00000000E+00
 -2.21050037E-05 -1.32734867E-05  0.00000000E+00  1.38198814E-04  9.31644621E-06
  0.00000000E+00  0.00000000E+00 -1.89666349E-04 -1.40630007E-04  4.46558027E-04
  2.32184126E-03  2.81341123E-04  2.23084694E-05 -4.17413943E-05 -2.80541071E-04
  0.00000000E+00  9.89097789E-05 -1.40530200E-03  0.00000000E+00  3.03756798E-04
 -3.84972359E-04  0.00000000E+00 -2.79471084E-05  0.00000000E+00  0.00000000E+00
  3.09614799E-05  2.06074308E-05 -1.66848659E-04  0.00000000E+00  0.00000000E+00
 -5.46499045E-04 -2.39276878E-05  9.76835302E-01 -9.19350036E-03  4.34382774E-02
 -4.14114643E-05 -1.27885615E-03 -1.56294462E-03  1.44180566E-03  0.00000000E+00
  1.56621262E-03 -1.36558798E-03  0.00000000E+00 -6.17257843E-04 -1.02461386E-03
  0.00000000E+00  6.31393834E-05 -5.08236941E-05  0.00000000E+00  3.57335152E-05
  0.00000000E+00  0.00000000E+00 -1.08812352E-04 -3.80306107E-06  7.76998462E-04
  0.00000000E+00  0.00000000E+00 -1.64797476E-04 -2.47041591E-04 -2.52230172E-04
  0.00000000E+00  0.00000000E+00  2.06298630E-04  1.22365208E-04  0.00000000E+00
 -6.33455511E-05  8.69629986E-06  0.00000000E+00  0.00000000E+00  2.24655363E-05
  2.00366262E-05  0.00000000E+00  1.28792053E-06  1.22902365E-04  0.00000000E+00
  0.00000000E+00  2.58996465E-04  9.19449417E-05 -4.87419386E-03 -2.05598536E-04