title                                                                   
SP        RMP2-FC                                                     Aug-CC-pVTZ         
Number of atoms                            I                5
Info1-9                                    I   N=           9
          33          24           0           0           0         110
           1           2           1
Full Title                                 C   N=           1
title       
Route                                      C   N=           4
#p SP mp2/aug-cc-pvtz density=current           
Charge                                     I                0
Multiplicity                               I                1
Number of electrons                        I               32
Number of alpha electrons                  I               16
Number of beta electrons                   I               16
Number of basis functions                  I              207
Number of independent functions            I              207
Number of point charges in /Mol/           I                0
Number of translation vectors              I                0
Atomic numbers                             I   N=           5
           1           8           8           7           8
Nuclear charges                            R   N=           5
  1.00000000E+00  8.00000000E+00  8.00000000E+00  7.00000000E+00  8.00000000E+00
Current cartesian coordinates              R   N=          15
  2.85951644E+00  3.19799946E+00 -2.09265912E-31  2.74762751E+00  1.37032271E+00
 -8.12035886E-32  6.74704872E-17  1.27164089E+00 -2.60606553E-32 -4.90093017E-01
 -1.44114673E+00  3.27875912E-32 -2.67623567E+00 -1.78071014E+00  6.28197087E-32
Number of symbols in /Mol/                 I                0
Force Field                                I                0
Atom Types                                 C   N=           5
                                                            
Int Atom Types                             I   N=           5
           0           0           0           0           0
MM charges                                 R   N=           5
  0.00000000E+00  0.00000000E+00  0.00000000E+00  0.00000000E+00  0.00000000E+00
Integer atomic weights                     I   N=           5
           1          16          16          14          16
Real atomic weights                        R   N=           5
  1.00782504E+00  1.59949146E+01  1.59949146E+01  1.40030740E+01  1.59949146E+01
Atom fragment info                         I   N=           5
           0           0           0           0           0
Atom residue num                           I   N=           5
           0           0           0           0           0
Nuclear spins                              I   N=           5
           1           0           0           2           0
Nuclear ZEff                               R   N=           5
 -1.00000000E+00 -5.60000000E+00 -5.60000000E+00 -4.55000000E+00 -5.60000000E+00
Nuclear ZNuc                               R   N=           5
  1.00000000E+00  8.00000000E+00  8.00000000E+00  7.00000000E+00  8.00000000E+00
Nuclear QMom                               R   N=           5
  0.00000000E+00  0.00000000E+00  0.00000000E+00  2.04400000E+00  0.00000000E+00
Nuclear GFac                               R   N=           5
  2.79284600E+00  0.00000000E+00  0.00000000E+00  4.03761000E-01  0.00000000E+00
MicOpt                                     I   N=           5
          -1          -1          -1          -1          -1
Number of residues                         I                0
Number of secondary structures             I                0
SymInf integers                            I   N=          26
           1           2           1           1           1           1
           1          -1           0           0           0           0
           0           0           0           0           0           0
           0           0           0           0           0           0
           0           0
RotTr to input orientation                 R   N=          12
 -9.98131355E-01 -9.82645823E-17 -6.11048182E-02  6.11048182E-02 -7.30867272E-17
 -9.98131355E-01  9.36150094E-17 -1.00000000E+00  7.89545935E-17  2.65875985E+00
  0.00000000E+00  3.36675377E+00
Number of contracted shells                I               65
Number of primitive shells                 I              119
Pure/Cartesian d shells                    I                0
Pure/Cartesian f shells                    I                0
Highest angular momentum                   I                3
Largest degree of contraction              I                7
Shell types                                I   N=          65
           0           0           0           0           1           1
           1          -2          -2           0           0           0
           0           0           1           1           1           1
          -2          -2          -2          -3          -3           0
           0           0           0           0           1           1
           1           1          -2          -2          -2          -3
          -3           0           0           0           0           0
           1           1           1           1          -2          -2
          -2          -3          -3           0           0           0
           0           0           1           1           1           1
          -2          -2          -2          -3          -3
Number of primitives per shell             I   N=          65
           3           1           1           1           1           1
           1           1           1           7           6           1
           1           1           3           1           1           1
           1           1           1           1           1           7
           6           1           1           1           3           1
           1           1           1           1           1           1
           1           7           6           1           1           1
           3           1           1           1           1           1
           1           1           1           7           6           1
           1           1           3           1           1           1
           1           1           1           1           1
Shell to atom map                          I   N=          65
           1           1           1           1           1           1
           1           1           1           2           2           2
           2           2           2           2           2           2
           2           2           2           2           2           3
           3           3           3           3           3           3
           3           3           3           3           3           3
           3           4           4           4           4           4
           4           4           4           4           4           4
           4           4           4           5           5           5
           5           5           5           5           5           5
           5           5           5           5           5
Primitive exponents                        R   N=         119
  3.38700000E+01  5.09500000E+00  1.15900000E+00  3.25800000E-01  1.02700000E-01
  2.52600000E-02  1.40700000E+00  3.88000000E-01  1.02000000E-01  1.05700000E+00
  2.47000000E-01  1.53300000E+04  2.29900000E+03  5.22400000E+02  1.47300000E+02
  4.75500000E+01  1.67600000E+01  6.20700000E+00  5.22400000E+02  1.47300000E+02
  4.75500000E+01  1.67600000E+01  6.20700000E+00  6.88200000E-01  1.75200000E+00
  2.38400000E-01  7.37600000E-02  3.44600000E+01  7.74900000E+00  2.28000000E+00
  7.15600000E-01  2.14000000E-01  5.97400000E-02  2.31400000E+00  6.45000000E-01
  2.14000000E-01  1.42800000E+00  5.00000000E-01  1.53300000E+04  2.29900000E+03
  5.22400000E+02  1.47300000E+02  4.75500000E+01  1.67600000E+01  6.20700000E+00
  5.22400000E+02  1.47300000E+02  4.75500000E+01  1.67600000E+01  6.20700000E+00
  6.88200000E-01  1.75200000E+00  2.38400000E-01  7.37600000E-02  3.44600000E+01
  7.74900000E+00  2.28000000E+00  7.15600000E-01  2.14000000E-01  5.97400000E-02
  2.31400000E+00  6.45000000E-01  2.14000000E-01  1.42800000E+00  5.00000000E-01
  1.14200000E+04  1.71200000E+03  3.89300000E+02  1.10000000E+02  3.55700000E+01
  1.25400000E+01  4.64400000E+00  3.89300000E+02  1.10000000E+02  3.55700000E+01
  1.25400000E+01  4.64400000E+00  5.11800000E-01  1.29300000E+00  1.78700000E-01
  5.76000000E-02  2.66300000E+01  5.94800000E+00  1.74200000E+00  5.55000000E-01
  1.72500000E-01  4.91000000E-02  1.65400000E+00  4.69000000E-01  1.51000000E-01
  1.09300000E+00  3.64000000E-01  1.53300000E+04  2.29900000E+03  5.22400000E+02
  1.47300000E+02  4.75500000E+01  1.67600000E+01  6.20700000E+00  5.22400000E+02
  1.47300000E+02  4.75500000E+01  1.67600000E+01  6.20700000E+00  6.88200000E-01
  1.75200000E+00  2.38400000E-01  7.37600000E-02  3.44600000E+01  7.74900000E+00
  2.28000000E+00  7.15600000E-01  2.14000000E-01  5.97400000E-02  2.31400000E+00
  6.45000000E-01  2.14000000E-01  1.42800000E+00  5.00000000E-01
Contraction coefficients                   R   N=         119
  2.54948632E-02  1.90362766E-01  8.52162022E-01  1.00000000E+00  1.00000000E+00
  1.00000000E+00  1.00000000E+00  1.00000000E+00  1.00000000E+00  1.00000000E+00
  1.00000000E+00  5.19808943E-04  4.02025621E-03  2.07128267E-02  8.10105536E-02
  2.35962985E-01  4.42653446E-01  3.57064423E-01 -4.42115008E-05 -1.22591041E-03
 -1.05517725E-02 -6.74452633E-02 -1.71198607E-01  1.07329856E+00  1.00000000E+00
  1.00000000E+00  1.00000000E+00  4.11634896E-02  2.57762836E-01  8.02419274E-01
  1.00000000E+00  1.00000000E+00  1.00000000E+00  1.00000000E+00  1.00000000E+00
  1.00000000E+00  1.00000000E+00  1.00000000E+00  5.19808943E-04  4.02025621E-03
  2.07128267E-02  8.10105536E-02  2.35962985E-01  4.42653446E-01  3.57064423E-01
 -4.42115008E-05 -1.22591041E-03 -1.05517725E-02 -6.74452633E-02 -1.71198607E-01
  1.07329856E+00  1.00000000E+00  1.00000000E+00  1.00000000E+00  4.11634896E-02
  2.57762836E-01  8.02419274E-01  1.00000000E+00  1.00000000E+00  1.00000000E+00
  1.00000000E+00  1.00000000E+00  1.00000000E+00  1.00000000E+00  1.00000000E+00
  5.34563860E-04  4.13435660E-03  2.12335358E-02  8.25006224E-02  2.38138871E-01
  4.42551547E-01  3.53757422E-01 -4.89867350E-05 -1.19527323E-03 -1.03490714E-02
 -6.48680190E-02 -1.71552477E-01  1.07289568E+00  1.00000000E+00  1.00000000E+00
  1.00000000E+00  3.98072123E-02  2.49002660E-01  8.10479727E-01  1.00000000E+00
  1.00000000E+00  1.00000000E+00  1.00000000E+00  1.00000000E+00  1.00000000E+00
  1.00000000E+00  1.00000000E+00  5.19808943E-04  4.02025621E-03  2.07128267E-02
  8.10105536E-02  2.35962985E-01  4.42653446E-01  3.57064423E-01 -4.42115008E-05
 -1.22591041E-03 -1.05517725E-02 -6.74452633E-02 -1.71198607E-01  1.07329856E+00
  1.00000000E+00  1.00000000E+00  1.00000000E+00  4.11634896E-02  2.57762836E-01
  8.02419274E-01  1.00000000E+00  1.00000000E+00  1.00000000E+00  1.00000000E+00
  1.00000000E+00  1.00000000E+00  1.00000000E+00  1.00000000E+00
Coordinates of each shell                  R   N=         195
  2.85951644E+00  3.19799946E+00 -9.43678363E-32  2.85951644E+00  3.19799946E+00
 -9.43678363E-32  2.85951644E+00  3.19799946E+00 -9.43678363E-32  2.85951644E+00
  3.19799946E+00 -9.43678363E-32  2.85951644E+00  3.19799946E+00 -9.43678363E-32
  2.85951644E+00  3.19799946E+00 -9.43678363E-32  2.85951644E+00  3.19799946E+00
 -9.43678363E-32  2.85951644E+00  3.19799946E+00 -9.43678363E-32  2.85951644E+00
  3.19799946E+00 -9.43678363E-32  2.74762751E+00  1.37032271E+00 -6.97290991E-32
  2.74762751E+00  1.37032271E+00 -6.97290991E-32  2.74762751E+00  1.37032271E+00
 -6.97290991E-32  2.74762751E+00  1.37032271E+00 -6.97290991E-32  2.74762751E+00
  1.37032271E+00 -6.97290991E-32  2.74762751E+00  1.37032271E+00 -6.97290991E-32
  2.74762751E+00  1.37032271E+00 -6.97290991E-32  2.74762751E+00  1.37032271E+00
 -6.97290991E-32  2.74762751E+00  1.37032271E+00 -6.97290991E-32  2.74762751E+00
  1.37032271E+00 -6.97290991E-32  2.74762751E+00  1.37032271E+00 -6.97290991E-32
  2.74762751E+00  1.37032271E+00 -6.97290991E-32  2.74762751E+00  1.37032271E+00
 -6.97290991E-32  2.74762751E+00  1.37032271E+00 -6.97290991E-32  2.25253079E-18
  1.27164089E+00 -1.56448946E-32  2.25253079E-18  1.27164089E+00 -1.56448946E-32
  2.25253079E-18  1.27164089E+00 -1.56448946E-32  2.25253079E-18  1.27164089E+00
 -1.56448946E-32  2.25253079E-18  1.27164089E+00 -1.56448946E-32  2.25253079E-18
  1.27164089E+00 -1.56448946E-32  2.25253079E-18  1.27164089E+00 -1.56448946E-32
  2.25253079E-18  1.27164089E+00 -1.56448946E-32  2.25253079E-18  1.27164089E+00
 -1.56448946E-32  2.25253079E-18  1.27164089E+00 -1.56448946E-32  2.25253079E-18
  1.27164089E+00 -1.56448946E-32  2.25253079E-18  1.27164089E+00 -1.56448946E-32
  2.25253079E-18  1.27164089E+00 -1.56448946E-32  2.25253079E-18  1.27164089E+00
 -1.56448946E-32 -4.90093017E-01 -1.44114673E+00  2.71607313E-32 -4.90093017E-01
 -1.44114673E+00  2.71607313E-32 -4.90093017E-01 -1.44114673E+00  2.71607313E-32
 -4.90093017E-01 -1.44114673E+00  2.71607313E-32 -4.90093017E-01 -1.44114673E+00
  2.71607313E-32 -4.90093017E-01 -1.44114673E+00  2.71607313E-32 -4.90093017E-01
 -1.44114673E+00  2.71607313E-32 -4.90093017E-01 -1.44114673E+00  2.71607313E-32
 -4.90093017E-01 -1.44114673E+00  2.71607313E-32 -4.90093017E-01 -1.44114673E+00
  2.71607313E-32 -4.90093017E-01 -1.44114673E+00  2.71607313E-32 -4.90093017E-01
 -1.44114673E+00  2.71607313E-32 -4.90093017E-01 -1.44114673E+00  2.71607313E-32
 -4.90093017E-01 -1.44114673E+00  2.71607313E-32 -2.67623567E+00 -1.78071014E+00
  7.34043334E-32 -2.67623567E+00 -1.78071014E+00  7.34043334E-32 -2.67623567E+00
 -1.78071014E+00  7.34043334E-32 -2.67623567E+00 -1.78071014E+00  7.34043334E-32
 -2.67623567E+00 -1.78071014E+00  7.34043334E-32 -2.67623567E+00 -1.78071014E+00
  7.34043334E-32 -2.67623567E+00 -1.78071014E+00  7.34043334E-32 -2.67623567E+00
 -1.78071014E+00  7.34043334E-32 -2.67623567E+00 -1.78071014E+00  7.34043334E-32
 -2.67623567E+00 -1.78071014E+00  7.34043334E-32 -2.67623567E+00 -1.78071014E+00
  7.34043334E-32 -2.67623567E+00 -1.78071014E+00  7.34043334E-32 -2.67623567E+00
 -1.78071014E+00  7.34043334E-32 -2.67623567E+00 -1.78071014E+00  7.34043334E-32
Num ILSW                                   I              100
ILSW                                       I   N=         100
           0           0           0           0           2           0
           0           0           0           0           0          -1
           5           0           0           0           0           0
           0           0           0           0           0           0
           1           0           0           0           0           0
           0           0      100000           0          -1           0
           0           0           0           0           0           0
           0           0           0           1           0           0
           0 -2000000000           1           0           0           0
           0           0           4          52           0           0
           0           0           0           0           0           0
           0           0           0           5           0           1
           0           0           0           0           0           0
           0           0           0           0           0           0
           0           0           0           0           0           0
           0           0           0           0           0           0
           0           0           0           0
Num RLSW                                   I               52
RLSW                                       R   N=          52
  1.00000000E+00  1.00000000E+00  1.00000000E+00  1.00000000E+00  1.00000000E+00
  0.00000000E+00  0.00000000E+00  1.00000000E+00  0.00000000E+00  0.00000000E+00
  0.00000000E+00  0.00000000E+00  1.00000000E+00  0.00000000E+00  0.00000000E+00
  0.00000000E+00  0.00000000E+00  1.00000000E+00  0.00000000E+00  0.00000000E+00
  0.00000000E+00  0.00000000E+00  1.00000000E+00  0.00000000E+00  0.00000000E+00
  0.00000000E+00  0.00000000E+00  1.00000000E+00  0.00000000E+00  0.00000000E+00
  0.00000000E+00  0.00000000E+00  1.00000000E+00  0.00000000E+00  0.00000000E+00
  0.00000000E+00  0.00000000E+00  0.00000000E+00  1.00000000E+00  1.00000000E+00
  0.00000000E+00  1.00000000E+00  0.00000000E+00  0.00000000E+00  0.00000000E+00
  0.00000000E+00  0.00000000E+00  0.00000000E+00  0.00000000E+00  0.00000000E+00
  0.00000000E+00  0.00000000E+00
MxBond                                     I                2
NBond                                      I   N=           5
           1           2           2           2           1
IBond                                      I   N=          10
           2           0           1           3           2           4
           3           5           4           0
RBond                                      R   N=          10
  1.00000000E+00  0.00000000E+00  1.00000000E+00  1.00000000E+00  1.00000000E+00
  1.00000000E+00  1.00000000E+00  2.00000000E+00  2.00000000E+00  0.00000000E+00
Virial Ratio                               R      2.002324718179747E+00
SCF Energy                                 R     -2.795012555038974E+02
MP2 Energy                                 R     -2.804466011884460E+02
Total Energy                               R     -2.804466011884460E+02
Post-SCF wavefunction norm                 R      1.120282932744833E+00
RMS Density                                R      3.770505975761685E-09
Job Status                                 I                1
Nuclear derivative order                   I                0
External E-field                           R   N=          35
  0.00000000E+00  0.00000000E+00  0.00000000E+00  0.00000000E+00  0.00000000E+00
  0.00000000E+00  0.00000000E+00  0.00000000E+00  0.00000000E+00  0.00000000E+00
  0.00000000E+00  0.00000000E+00  0.00000000E+00  0.00000000E+00  0.00000000E+00
  0.00000000E+00  0.00000000E+00  0.00000000E+00  0.00000000E+00  0.00000000E+00
  0.00000000E+00  0.00000000E+00  0.00000000E+00  0.00000000E+00  0.00000000E+00
  0.00000000E+00  0.00000000E+00  0.00000000E+00  0.00000000E+00  0.00000000E+00
  0.00000000E+00  0.00000000E+00  0.00000000E+00  0.00000000E+00  0.00000000E+00
IOpCl                                      I                0
IROHF                                      I                0
Alpha Orbital Energies                     R   N=         207
 -2.06906655E+01 -2.06842697E+01 -2.06607551E+01 -1.58127944E+01 -1.62413267E+00
 -1.49702593E+00 -1.25409731E+00 -9.48187004E-01 -7.73833593E-01 -7.57867501E-01
 -7.12028428E-01 -6.78785599E-01 -6.20822125E-01 -5.91303658E-01 -4.85479020E-01
 -4.72529043E-01  2.98581612E-02  7.15845092E-02  8.59227353E-02  1.01642356E-01
  1.33849274E-01  1.34076102E-01  1.44122239E-01  1.54643067E-01  1.78192080E-01
  1.93962507E-01  1.99626027E-01  2.06411995E-01  2.20697503E-01  2.35329511E-01
  2.37353595E-01  2.65165392E-01  2.93437854E-01  3.03706815E-01  3.11062429E-01
  3.43253460E-01  3.50047406E-01  3.87299595E-01  4.23616121E-01  4.31047733E-01
  5.27671010E-01  5.29397879E-01  5.58074183E-01  5.81114010E-01  6.26115723E-01
  6.38098980E-01  6.74647918E-01  6.84839008E-01  7.06506232E-01  7.09873929E-01
  7.28162872E-01  7.28411688E-01  7.44400387E-01  7.93467611E-01  7.94575081E-01
  8.11791820E-01  8.12151462E-01  8.29320465E-01  8.67688935E-01  9.08625434E-01
  9.20848689E-01  9.27512764E-01  9.54600560E-01  9.76391653E-01  9.86152202E-01
  1.01749575E+00  1.05152423E+00  1.05443489E+00  1.08267866E+00  1.11736921E+00
  1.14397117E+00  1.19023312E+00  1.22093528E+00  1.23558199E+00  1.33952530E+00
  1.35183435E+00  1.38564890E+00  1.45708177E+00  1.48706047E+00  1.50590448E+00
  1.53723440E+00  1.56650638E+00  1.57952695E+00  1.61035106E+00  1.66231120E+00
  1.67080461E+00  1.70311357E+00  1.79775677E+00  1.83062178E+00  1.83611628E+00
  1.87730086E+00  1.91122564E+00  1.95482378E+00  1.99413631E+00  2.00376990E+00
  2.07917008E+00  2.12671384E+00  2.13208188E+00  2.14965231E+00  2.22669568E+00
  2.26245739E+00  2.26411481E+00  2.29106491E+00  2.31373977E+00  2.34236977E+00
  2.38663824E+00  2.42782730E+00  2.43402025E+00  2.45322663E+00  2.46242073E+00
  2.47992107E+00  2.49932005E+00  2.59074774E+00  2.59915634E+00  2.61978181E+00
  2.62614180E+00  2.63519684E+00  2.66533200E+00  2.75798627E+00  2.82733353E+00
  2.84574466E+00  2.87903888E+00  2.89203756E+00  2.92823811E+00  2.95372019E+00
  3.02414013E+00  3.06915477E+00  3.12012987E+00  3.20901087E+00  3.22354723E+00
  3.31412461E+00  3.34288383E+00  3.51899906E+00  3.63787311E+00  3.83705323E+00
  3.84072966E+00  4.14599361E+00  4.17206756E+00  4.18341696E+00  4.25866236E+00
  4.34473256E+00  4.39640061E+00  4.46154548E+00  4.52797663E+00  4.65874016E+00
  4.73255929E+00  4.80251891E+00  4.82391303E+00  4.82810743E+00  4.89557334E+00
  5.02489979E+00  5.07695067E+00  5.10198569E+00  5.13640959E+00  5.17328345E+00
  5.25107869E+00  5.27004408E+00  5.30645117E+00  5.32847275E+00  5.35810833E+00
  5.60183170E+00  5.67350188E+00  5.76464455E+00  5.84276504E+00  5.95811231E+00
  6.17495669E+00  6.31154362E+00  6.33204378E+00  6.39344838E+00  6.49381779E+00
  6.50519852E+00  6.61513779E+00  6.66790631E+00  6.70293180E+00  6.76096330E+00
  6.76162632E+00  6.83481294E+00  6.89917476E+00  7.02551981E+00  7.04887182E+00
  7.05675738E+00  7.08905546E+00  7.12533994E+00  7.14175960E+00  7.18223830E+00
  7.22700390E+00  7.24154617E+00  7.30246239E+00  7.32438383E+00  7.35033503E+00
  7.39980127E+00  7.44991145E+00  7.48481092E+00  7.60705787E+00  7.62098806E+00
  7.62637169E+00  7.66704789E+00  7.79700686E+00  7.88709531E+00  8.09420291E+00
  8.31896570E+00  8.39378420E+00  8.54262091E+00  1.33892116E+01  1.43885130E+01
  1.51861614E+01  1.61541673E+01
Alpha MO coefficients                      R   N=       42849
  8.93828816E-05 -5.11634123E-04 -6.49583782E-04 -2.61171431E-06 -5.50684971E-06
 -3.01778923E-05  0.00000000E+00 -5.83956847E-05 -1.61137679E-05  0.00000000E+00
  7.24847815E-05  4.27061063E-06  0.00000000E+00  2.67222128E-05  0.00000000E+00
  0.00000000E+00 -6.09176369E-05  1.61609771E-05 -9.61090710E-06  0.00000000E+00
  0.00000000E+00 -1.62160911E-04  1.26400462E-04  4.73427346E-03 -2.93745514E-04
  2.51064709E-05  1.36615930E-03  1.71602492E-03  1.05403290E-04  1.03838898E-05
  0.00000000E+00 -6.15683932E-04 -7.14371912E-05  0.00000000E+00 -1.06960218E-03
  6.95911711E-04  0.00000000E+00 -3.87965913E-04  5.82630055E-05  0.00000000E+00
  2.85838559E-05  0.00000000E+00  0.00000000E+00 -5.25648364E-05  6.73521458E-06
 -3.68255833E-04  0.00000000E+00  0.00000000E+00  7.46652475E-04 -3.30372688E-05
 -4.35334823E-04  0.00000000E+00  0.00000000E+00  2.39413616E-04  2.45173711E-08
  0.00000000E+00  7.96785714E-05  1.37933678E-05  0.00000000E+00  0.00000000E+00
 -1.09821591E-04 -1.60287772E-06  0.00000000E+00  2.55568162E-04 -2.66853862E-05
  0.00000000E+00  0.00000000E+00 -3.45985592E-04  4.16797584E-05  9.76907770E-01
 -9.21888634E-03  4.33222212E-02  2.04027968E-03 -8.68285024E-04  1.48619348E-03
 -1.35246871E-03  0.00000000E+00 -1.42641163E-03  1.38140791E-03  0.00000000E+00
  1.19214863E-04 -1.10305116E-03  0.00000000E+00 -1.22241400E-04 -6.57962281E-06
  0.00000000E+00  4.51073346E-05  0.00000000E+00  0.00000000E+00 -3.61692817E-05
  2.32024596E-05  7.49371799E-04  0.00000000E+00  0.00000000E+00 -2.22760814E-04
 -3.92150783E-04 -3.71791493E-04  0.00000000E+00  0.00000000E+00 -3.05503340E-04
 -3.44219910E-04  0.00000000E+00  4.70509929E-05 -4.82649775E-05  0.00000000E+00
  0.00000000E+00 -3.79110824E-05 -1.65780330E-05  0.00000000E+00  2.38489354E-05
  1.90317093E-05  0.00000000E+00  0.00000000E+00 -3.04891863E-04 -1.39762888E-04
  3.92910805E-05  4.65579443E-05 -2.65944267E-04 -6.79317120E-04 -1.38670190E-04
 -2.70084203E-05 -9.84228500E-05  0.00000000E+00  2.70575289E-04  7.15322177E-04
  0.00000000E+00 -8.15482214E-04 -4.30222912E-04  0.00000000E+00 -1.19081349E-04
 -2.35650880E-05  0.00000000E+00 -1.79771329E-05  0.00000000E+00  0.00000000E+00
 -2.95619161E-05  1.50590918E-05 -3.31562032E-04  0.00000000E+00  0.00000000E+00
 -8.33085169E-04  1.24286239E-04 -3.66687240E-05  0.00000000E+00  0.00000000E+00
  8.09089775E-05 -1.24003668E-04  0.00000000E+00 -2.05953009E-05 -1.20568450E-04
  0.00000000E+00  0.00000000E+00 -6.18376120E-05 -1.38549626E-04  0.00000000E+00
  3.43965610E-06 -1.54871215E-04  0.00000000E+00  0.00000000E+00  4.41377966E-05
 -4.18069084E-04 -2.66225716E-03  1.22929567E-04 -1.27388033E-04 -2.28668670E-04
  1.43848670E-04 -8.18750468E-06 -2.80755322E-05  0.00000000E+00  6.99359410E-05
  1.65286366E-04  0.00000000E+00  2.35706951E-04  1.77946231E-04  0.00000000E+00
  1.24991338E-04  2.21467827E-05  0.00000000E+00 -3.36451633E-06  0.00000000E+00
  0.00000000E+00 -1.80239459E-05  1.49122520E-06  6.53316814E-07  0.00000000E+00
  0.00000000E+00  8.10090291E-05  8.65637158E-05 -9.74693945E-05  0.00000000E+00
  0.00000000E+00  1.69294886E-04  1.53019151E-04  0.00000000E+00  1.58615718E-05
 -3.49190561E-06  0.00000000E+00  0.00000000E+00 -4.34319465E-06 -1.18505324E-05
  0.00000000E+00 -3.34734956E-05  4.58527433E-05  0.00000000E+00  0.00000000E+00
  8.42751647E-05  8.94408700E-05  4.32250378E-05 -9.88022796E-04 -4.79250093E-04
 -9.98258990E-06 -2.01636264E-05  1.52268690E-05  0.00000000E+00  3.16462887E-06
  2.77435999E-04  0.00000000E+00 -3.51775961E-05  1.32380373E-04  0.00000000E+00
  2.78423909E-05  0.00000000E+00  0.00000000E+00  1.07007197E-05  8.72751816E-06
 -2.50068282E-05  0.00000000E+00  0.00000000E+00  8.57463191E-06  2.96602556E-05
  1.16258657E-04  8.40748783E-05 -2.72759761E-05  7.52696843E-04  6.39085430E-04
  1.05913404E-05  2.42386849E-06  0.00000000E+00 -7.52777052E-05  1.82468597E-05
  0.00000000E+00  2.86995163E-04  8.93096374E-04  0.00000000E+00 -3.02280296E-06
  7.58955890E-05  0.00000000E+00 -2.42677534E-06  0.00000000E+00  0.00000000E+00
  1.30642187E-07 -5.38204618E-06 -3.53607597E-05  0.00000000E+00  0.00000000E+00
 -2.40198380E-05  7.59385087E-05 -2.37130670E-05  0.00000000E+00  0.00000000E+00
 -2.60425118E-04 -1.81821150E-04  0.00000000E+00  8.87396312E-06  5.91840791E-06
  0.00000000E+00  0.00000000E+00  2.99572134E-06 -1.93035285E-05  0.00000000E+00
 -3.75287140E-05 -3.78062233E-05  0.00000000E+00  0.00000000E+00 -7.01125176E-05
  1.76038924E-05  2.70128392E-03  3.89898005E-05  9.51532982E-05 -9.76807608E-05
 -4.54720505E-04  7.26991029E-06  1.58865305E-05  0.00000000E+00 -6.21264693E-05
 -5.72357004E-05  0.00000000E+00  2.32323261E-04 -1.72736562E-04  0.00000000E+00
 -1.82231846E-04 -6.17445041E-05  0.00000000E+00 -8.87028870E-06  0.00000000E+00
  0.00000000E+00  2.20398534E-05  1.99351091E-05  5.20040977E-06  0.00000000E+00
  0.00000000E+00 -1.15194798E-04 -4.80220547E-05 -9.08092559E-06  0.00000000E+00
  0.00000000E+00 -2.19006206E-04 -1.95956248E-04  0.00000000E+00  3.55465610E-06
 -9.49543673E-08  0.00000000E+00  0.00000000E+00  2.14351364E-06 -1.41367715E-05
  0.00000000E+00 -4.81603191E-05  1.30157942E-06  0.00000000E+00  0.00000000E+00
 -7.75781765E-05  1.89537144E-04  2.58626492E-04  1.46456962E-03 -7.82808581E-05
 -1.54151050E-03  3.85959542E-04 -1.44584445E-04 -4.64611422E-07  0.00000000E+00
 -2.08695913E-03 -4.05058437E-04  0.00000000E+00  1.05557459E-03  7.78686102E-04
  0.00000000E+00 -1.70998089E-04  5.34071710E-05  0.00000000E+00 -1.23311053E-04
  0.00000000E+00  0.00000000E+00  2.42778562E-04  9.49252154E-05 -4.42805344E-04
  0.00000000E+00  0.00000000E+00  8.96790770E-04 -6.34279168E-05  1.15465610E-05
  0.00000000E+00  0.00000000E+00 -3.43434487E-04 -1.22902672E-04  0.00000000E+00
 -1.45669408E-06  1.50000991E-05  0.00000000E+00  0.00000000E+00  1.90006408E-05
  1.33644557E-05  0.00000000E+00  1.65161559E-04 -7.16197672E-05  0.00000000E+00
  0.00000000E+00 -2.40387341E-04  4.06952272E-05  9.76648761E-01 -9.84872156E-03
  4.35683284E-02  4.51775636E-03 -4.35486978E-04  2.14682340E-03  4.82964414E-04
  0.00000000E+00 -2.38156736E-03 -6.05879793E-04  0.00000000E+00  1.14527911E-03
 -5.77200504E-06  0.00000000E+00  6.16670859E-06 -4.09853778E-05  0.00000000E+00
 -2.32493574E-04  0.00000000E+00  0.00000000E+00  1.02501349E-04  3.23710200E-05
  3.90106928E-04  0.00000000E+00  0.00000000E+00 -8.32083248E-04 -4.21426223E-04
 -1.52369155E-04  0.00000000E+00  0.00000000E+00  2.58028095E-04  1.57541474E-05
  0.00000000E+00  5.21008758E-05  1.77758824E-05  0.00000000E+00  0.00000000E+00
 -2.19898438E-05 -1.33236361E-05  0.00000000E+00  1.38641381E-04  9.57574791E-06
  0.00000000E+00  0.00000000E+00 -1.88612791E-04 -1.41557615E-04  4.69957652E-04
  1.92820070E-03  9.05164927E-05  1.86912849E-05 -3.75458025E-05 -2.49524082E-04
  0.00000000E+00  1.53009225E-04 -1.24469560E-03  0.00000000E+00  3.53072958E-04
 -3.31895819E-04  0.00000000E+00 -4.68191561E-06  0.00000000E+00  0.00000000E+00
  7.42542461E-05  2.88601193E-05 -1.71156535E-04  0.00000000E+00  0.00000000E+00
 -5.32982264E-04 -5.90798767E-05  9.76830581E-01 -9.17668830E-03  4.34422593E-02
  3.05098703E-04 -1.21118389E-03 -1.58732099E-03  1.41547256E-03  0.00000000E+00
  1.60504661E-03 -1.27106385E-03  0.00000000E+00 -5.32501659E-04 -7.53563007E-04
  0.00000000E+00  5.44505603E-05 -5.93014457E-05  0.00000000E+00  3.25782507E-05
  0.00000000E+00  0.00000000E+00 -1.17903812E-04 -1.45903427E-05  7.47821269E-04
  0.00000000E+00  0.00000000E+00 -1.96174267E-04 -1.94202994E-04 -2.69761303E-04
  0.00000000E+00  0.00000000E+00  1.39833942E-04  1.06516742E-04  0.00000000E+00
 -6.42781834E-05  3.01255339E-06  0.00000000E+00  0.00000000E+00  1.71134923E-05
  9.32907522E-06  0.00000000E+00 -7.61945024E-06  1.14977228E-04  0.00000000E+00
  0.00000000E+00  2.33816486E-04  9.58786117E-05 -4.82844451E-03 -2.10279026E-04