 Entering Gaussian System, Link 0=g16
 Input=hoono_r4_1p161019.gjf
 Output=hoono_r4_1p161019.log
 Initial command:
 /sw/contrib/gaussian/g16/B01/g16/l1.exe "/scr/Gau-13352.inp" -scrdir="/scr/"
 Entering Link 1 = /sw/contrib/gaussian/g16/B01/g16/l1.exe PID=     13353.
  
 Copyright (c) 1988-2017, Gaussian, Inc.  All Rights Reserved.
  
 This is part of the Gaussian(R) 16 program.  It is based on
 the Gaussian(R) 09 system (copyright 2009, Gaussian, Inc.),
 the Gaussian(R) 03 system (copyright 2003, Gaussian, Inc.),
 the Gaussian(R) 98 system (copyright 1998, Gaussian, Inc.),
 the Gaussian(R) 94 system (copyright 1995, Gaussian, Inc.),
 the Gaussian 92(TM) system (copyright 1992, Gaussian, Inc.),
 the Gaussian 90(TM) system (copyright 1990, Gaussian, Inc.),
 the Gaussian 88(TM) system (copyright 1988, Gaussian, Inc.),
 the Gaussian 86(TM) system (copyright 1986, Carnegie Mellon
 University), and the Gaussian 82(TM) system (copyright 1983,
 Carnegie Mellon University). Gaussian is a federally registered
 trademark of Gaussian, Inc.
  
 This software contains proprietary and confidential information,
 including trade secrets, belonging to Gaussian, Inc.
  
 This software is provided under written license and may be
 used, copied, transmitted, or stored only in accord with that
 written license.
  
 The following legend is applicable only to US Government
 contracts under FAR:
  
                    RESTRICTED RIGHTS LEGEND
  
 Use, reproduction and disclosure by the US Government is
 subject to restrictions as set forth in subparagraphs (a)
 and (c) of the Commercial Computer Software - Restricted
 Rights clause in FAR 52.227-19.
  
 Gaussian, Inc.
 340 Quinnipiac St., Bldg. 40, Wallingford CT 06492
  
  
 ---------------------------------------------------------------
 Warning -- This program may not be used in any manner that
 competes with the business of Gaussian, Inc. or will provide
 assistance to any competitor of Gaussian, Inc.  The licensee
 of this program is prohibited from giving any competitor of
 Gaussian, Inc. access to this program.  By using this program,
 the user acknowledges that Gaussian, Inc. is engaged in the
 business of creating and licensing software in the field of
 computational chemistry and represents and warrants to the
 licensee that it is not a competitor of Gaussian, Inc. and that
 it will not use this program in any manner prohibited above.
 ---------------------------------------------------------------
  

 Cite this work as:
 Gaussian 16, Revision B.01,
 M. J. Frisch, G. W. Trucks, H. B. Schlegel, G. E. Scuseria, 
 M. A. Robb, J. R. Cheeseman, G. Scalmani, V. Barone, 
 G. A. Petersson, H. Nakatsuji, X. Li, M. Caricato, A. V. Marenich, 
 J. Bloino, B. G. Janesko, R. Gomperts, B. Mennucci, H. P. Hratchian, 
 J. V. Ortiz, A. F. Izmaylov, J. L. Sonnenberg, D. Williams-Young, 
 F. Ding, F. Lipparini, F. Egidi, J. Goings, B. Peng, A. Petrone, 
 T. Henderson, D. Ranasinghe, V. G. Zakrzewski, J. Gao, N. Rega, 
 G. Zheng, W. Liang, M. Hada, M. Ehara, K. Toyota, R. Fukuda, 
 J. Hasegawa, M. Ishida, T. Nakajima, Y. Honda, O. Kitao, H. Nakai, 
 T. Vreven, K. Throssell, J. A. Montgomery, Jr., J. E. Peralta, 
 F. Ogliaro, M. J. Bearpark, J. J. Heyd, E. N. Brothers, K. N. Kudin, 
 V. N. Staroverov, T. A. Keith, R. Kobayashi, J. Normand, 
 K. Raghavachari, A. P. Rendell, J. C. Burant, S. S. Iyengar, 
 J. Tomasi, M. Cossi, J. M. Millam, M. Klene, C. Adamo, R. Cammi, 
 J. W. Ochterski, R. L. Martin, K. Morokuma, O. Farkas, 
 J. B. Foresman, and D. J. Fox, Gaussian, Inc., Wallingford CT, 2016.
 
 ******************************************
 Gaussian 16:  ES64L-G16RevB.01 20-Dec-2017
                14-Feb-2022 
 ******************************************
 %nproc=28
 Will use up to   28 processors via shared memory.
 %mem=120GB
 %chk=hoono_r4_1p161019.chk
 -------------------------------------
 #p SP mp2/aug-cc-pvtz density=current
 -------------------------------------
 1/30=1,38=1,172=1/1;
 2/12=2,17=6,18=5,40=1/2;
 3/5=16,6=1,7=10,11=9,25=1,30=1,71=1/1,2,3;
 4//1;
 5/5=2,38=5/2;
 8/6=4,10=1/1;
 9/15=1,16=-3/6;
 10/5=1,13=10/2;
 6/7=2,8=2,9=2,10=2,22=-1/1;
 99/5=1,9=1/99;
 Leave Link    1 at Mon Feb 14 13:08:46 2022, MaxMem= 16106127360 cpu:               3.2 elap:               0.1
 (Enter /sw/contrib/gaussian/g16/B01/g16/l101.exe)
 -----
 title
 -----
 Symbolic Z-matrix:
 Charge =  0 Multiplicity = 1
 H
 O                    1    r1
 O                    2    r2       1    a1
 N                    3    r3       2    a2       1    d1       0
 O                    4    r4       3    a3       2    d2       0
       Variables:
  r1                    0.96898                  
  r2                    1.45492                  
  r3                    1.45878                  
  r4                    1.16102                  
  a1                   97.59495                  
  a2                  102.29752                  
  a3                  109.06955                  
  d1                  180.                       
  d2                  180.                       
 
 ITRead=  0  0  0  0  0
 MicOpt= -1 -1 -1 -1 -1
 NAtoms=      5 NQM=        5 NQMF=       0 NMMI=      0 NMMIF=      0
                NMic=       0 NMicF=      0.
                    Isotopes and Nuclear Properties:
 (Nuclear quadrupole moments (NQMom) in fm**2, nuclear magnetic moments (NMagM)
  in nuclear magnetons)

  Atom         1           2           3           4           5
 IAtWgt=           1          16          16          14          16
 AtmWgt=   1.0078250  15.9949146  15.9949146  14.0030740  15.9949146
 NucSpn=           1           0           0           2           0
 AtZEff=  -0.0000000  -0.0000000  -0.0000000  -0.0000000  -0.0000000
 NQMom=    0.0000000   0.0000000   0.0000000   2.0440000   0.0000000
 NMagM=    2.7928460   0.0000000   0.0000000   0.4037610   0.0000000
 AtZNuc=   1.0000000   8.0000000   8.0000000   7.0000000   8.0000000
 Leave Link  101 at Mon Feb 14 13:08:46 2022, MaxMem= 16106127360 cpu:               2.7 elap:               0.1
 (Enter /sw/contrib/gaussian/g16/B01/g16/l202.exe)
                          Input orientation:                          
 ---------------------------------------------------------------------
 Center     Atomic      Atomic             Coordinates (Angstroms)
 Number     Number       Type             X           Y           Z
 ---------------------------------------------------------------------
      1          1           0        0.000000    0.000000    0.000000
      2          8           0        0.000000    0.000000    0.968976
      3          8           0        1.442156    0.000000    1.161271
      4          7           0        1.561752    0.000000    2.615144
      5          8           0        2.686462    0.000000    2.903230
 ---------------------------------------------------------------------
                    Distance matrix (angstroms):
                    1          2          3          4          5
     1  H    0.000000
     2  O    0.968976   0.000000
     3  O    1.851584   1.454919   0.000000
     4  N    3.045989   2.269127   1.458784   0.000000
     5  O    3.955480   3.310350   2.140729   1.161020   0.000000
 Stoichiometry    HNO3
 Framework group  CS[SG(HNO3)]
 Deg. of freedom     7
 Full point group                 CS      NOp   2
 Largest Abelian subgroup         CS      NOp   2
 Largest concise Abelian subgroup C1      NOp   1
                         Standard orientation:                         
 ---------------------------------------------------------------------
 Center     Atomic      Atomic             Coordinates (Angstroms)
 Number     Number       Type             X           Y           Z
 ---------------------------------------------------------------------
      1          1           0        1.552719    1.681320   -0.000000
      2          8           0        1.454232    0.717362   -0.000000
      3          8           0       -0.000000    0.672645   -0.000000
      4          7           0       -0.266749   -0.761544    0.000000
      5          8           0       -1.414916   -0.933821    0.000000
 ---------------------------------------------------------------------
 Rotational constants (GHZ):          55.0203920           5.0340455           4.6120681
 Leave Link  202 at Mon Feb 14 13:08:46 2022, MaxMem= 16106127360 cpu:               0.2 elap:               0.0
 (Enter /sw/contrib/gaussian/g16/B01/g16/l301.exe)
 Standard basis: Aug-CC-pVTZ (5D, 7F)
 Ernie: Thresh=  0.10000D-02 Tol=  0.10000D-05 Strict=F.
 Ernie:  12 primitive shells out of 131 were deleted.
 There are   166 symmetry adapted cartesian basis functions of A'  symmetry.
 There are    79 symmetry adapted cartesian basis functions of A"  symmetry.
 There are   136 symmetry adapted basis functions of A'  symmetry.
 There are    71 symmetry adapted basis functions of A"  symmetry.
   207 basis functions,   315 primitive gaussians,   245 cartesian basis functions
    16 alpha electrons       16 beta electrons
       nuclear repulsion energy       117.1685319322 Hartrees.
 IExCor=    0 DFT=F Ex=HF Corr=None ExCW=0 ScaHFX=  1.000000
 ScaDFX=  1.000000  1.000000  1.000000  1.000000 ScalE2=  1.000000  1.000000
 IRadAn=      5 IRanWt=     -1 IRanGd=            0 ICorTp=0 IEmpDi=  4
 NAtoms=    5 NActive=    5 NUniq=    5 SFac= 1.00D+00 NAtFMM=   60 NAOKFM=F Big=F
 Integral buffers will be    131072 words long.
 Raffenetti 1 integral format.
 Two-electron integral symmetry is turned on.
 Leave Link  301 at Mon Feb 14 13:08:46 2022, MaxMem= 16106127360 cpu:               1.6 elap:               0.1
 (Enter /sw/contrib/gaussian/g16/B01/g16/l302.exe)
 NPDir=0 NMtPBC=     1 NCelOv=     1 NCel=       1 NClECP=     1 NCelD=      1
         NCelK=      1 NCelE2=     1 NClLst=     1 CellRange=     0.0.
 One-electron integrals computed using PRISM.
 One-electron integral symmetry used in STVInt
 NBasis=   207 RedAO= T EigKep=  1.80D-04  NBF=   136    71
 NBsUse=   207 1.00D-06 EigRej= -1.00D+00 NBFU=   136    71
 Leave Link  302 at Mon Feb 14 13:08:47 2022, MaxMem= 16106127360 cpu:               4.3 elap:               0.2
 (Enter /sw/contrib/gaussian/g16/B01/g16/l303.exe)
 DipDrv:  MaxL=1.
 Leave Link  303 at Mon Feb 14 13:08:47 2022, MaxMem= 16106127360 cpu:               0.7 elap:               0.0
 (Enter /sw/contrib/gaussian/g16/B01/g16/l401.exe)
 ExpMin= 2.53D-02 ExpMax= 1.53D+04 ExpMxC= 5.22D+02 IAcc=3 IRadAn=         5 AccDes= 0.00D+00
 Harris functional with IExCor=  205 and IRadAn=       5 diagonalized for initial guess.
 HarFok:  IExCor=  205 AccDes= 0.00D+00 IRadAn=         5 IDoV= 1 UseB2=F ITyADJ=14
 ICtDFT=  3500011 ScaDFX=  1.000000  1.000000  1.000000  1.000000
 FoFCou: FMM=F IPFlag=           0 FMFlag=      100000 FMFlg1=           0
         NFxFlg=           0 DoJE=T BraDBF=F KetDBF=T FulRan=T
         wScrn=  0.000000 ICntrl=       500 IOpCl=  0 I1Cent=   200000004 NGrid=           0
         NMat0=    1 NMatS0=      1 NMatT0=    0 NMatD0=    1 NMtDS0=    0 NMtDT0=    0
 Petite list used in FoFCou.
 Harris En= -279.628436843171    
 JPrj=0 DoOrth=F DoCkMO=F.
 Initial guess orbital symmetries:
       Occupied  (A') (A') (A') (A') (A') (A') (A') (A') (A') (A')
                 (A") (A') (A') (A") (A") (A')
       Virtual   (A") (A') (A') (A') (A') (A') (A") (A') (A') (A')
                 (A") (A') (A") (A') (A') (A") (A') (A") (A') (A')
                 (A') (A') (A') (A') (A') (A") (A') (A") (A') (A')
                 (A") (A') (A") (A') (A') (A") (A') (A") (A') (A')
                 (A") (A') (A") (A') (A") (A') (A') (A') (A") (A")
                 (A') (A') (A') (A') (A") (A') (A") (A') (A") (A')
                 (A') (A') (A") (A') (A') (A") (A') (A") (A') (A')
                 (A") (A') (A') (A") (A") (A') (A') (A") (A') (A')
                 (A') (A") (A') (A") (A') (A") (A') (A") (A') (A')
                 (A') (A") (A') (A") (A') (A") (A") (A') (A') (A")
                 (A') (A') (A") (A') (A') (A') (A') (A") (A") (A')
                 (A") (A') (A') (A') (A") (A') (A') (A') (A") (A')
                 (A") (A') (A") (A') (A") (A') (A') (A") (A") (A')
                 (A') (A') (A') (A") (A") (A') (A") (A') (A') (A')
                 (A') (A") (A") (A') (A') (A") (A') (A') (A') (A')
                 (A") (A') (A') (A") (A') (A") (A') (A") (A') (A")
                 (A') (A") (A') (A") (A') (A") (A") (A") (A') (A')
                 (A") (A') (A") (A') (A') (A") (A") (A") (A') (A')
                 (A') (A') (A') (A') (A') (A') (A') (A') (A') (A')
                 (A')
 The electronic state of the initial guess is 1-A'.
 Leave Link  401 at Mon Feb 14 13:08:47 2022, MaxMem= 16106127360 cpu:               5.8 elap:               0.2
 (Enter /sw/contrib/gaussian/g16/B01/g16/l502.exe)
 Keep R1 ints in memory in symmetry-blocked form, NReq=348887737.
 FoFCou: FMM=F IPFlag=           0 FMFlag=           0 FMFlg1=           0
         NFxFlg=           0 DoJE=F BraDBF=F KetDBF=F FulRan=T
         wScrn=  0.000000 ICntrl=       600 IOpCl=  0 I1Cent=           0 NGrid=           0
         NMat0=    1 NMatS0=  21528 NMatT0=    0 NMatD0=    1 NMtDS0=    0 NMtDT0=    0
 Petite list used in FoFCou.
 Closed shell SCF:
 Using DIIS extrapolation, IDIIS=  1040.
 NGot= 16106127360 LenX= 15988850015 LenY= 15988789549
 Requested convergence on RMS density matrix=1.00D-08 within 128 cycles.
 Requested convergence on MAX density matrix=1.00D-06.
 Requested convergence on             energy=1.00D-06.
 No special actions if energy rises.

 Cycle   1  Pass 1  IDiag  1:
 E= -279.373903689537    
 DIIS: error= 2.69D-02 at cycle   1 NSaved=   1.
 NSaved= 1 IEnMin= 1 EnMin= -279.373903689537     IErMin= 1 ErrMin= 2.69D-02
 ErrMax= 2.69D-02  0.00D+00 EMaxC= 1.00D-01 BMatC= 4.37D-01 BMatP= 4.37D-01
 IDIUse=3 WtCom= 7.31D-01 WtEn= 2.69D-01
 Coeff-Com:  0.100D+01
 Coeff-En:   0.100D+01
 Coeff:      0.100D+01
 Gap=     0.516 Goal=   None    Shift=    0.000
 GapD=    0.516 DampG=2.000 DampE=0.500 DampFc=1.0000 IDamp=-1.
 RMSDP=1.61D-03 MaxDP=9.85D-02              OVMax= 1.09D-01

 Cycle   2  Pass 1  IDiag  1:
 E= -279.456670759587     Delta-E=       -0.082767070049 Rises=F Damp=F
 DIIS: error= 1.76D-02 at cycle   2 NSaved=   2.
 NSaved= 2 IEnMin= 2 EnMin= -279.456670759587     IErMin= 2 ErrMin= 1.76D-02
 ErrMax= 1.76D-02  0.00D+00 EMaxC= 1.00D-01 BMatC= 6.80D-02 BMatP= 4.37D-01
 IDIUse=3 WtCom= 8.24D-01 WtEn= 1.76D-01
 Coeff-Com:  0.187D+00 0.813D+00
 Coeff-En:   0.000D+00 0.100D+01
 Coeff:      0.154D+00 0.846D+00
 Gap=     0.525 Goal=   None    Shift=    0.000
 RMSDP=8.80D-04 MaxDP=3.66D-02 DE=-8.28D-02 OVMax= 6.78D-02

 Cycle   3  Pass 1  IDiag  1:
 E= -279.484099722080     Delta-E=       -0.027428962493 Rises=F Damp=F
 DIIS: error= 1.02D-02 at cycle   3 NSaved=   3.
 NSaved= 3 IEnMin= 3 EnMin= -279.484099722080     IErMin= 3 ErrMin= 1.02D-02
 ErrMax= 1.02D-02  0.00D+00 EMaxC= 1.00D-01 BMatC= 2.73D-02 BMatP= 6.80D-02
 IDIUse=3 WtCom= 8.98D-01 WtEn= 1.02D-01
 Coeff-Com: -0.327D-01 0.379D+00 0.654D+00
 Coeff-En:   0.000D+00 0.239D+00 0.761D+00
 Coeff:     -0.294D-01 0.364D+00 0.665D+00
 Gap=     0.508 Goal=   None    Shift=    0.000
 RMSDP=3.67D-04 MaxDP=1.48D-02 DE=-2.74D-02 OVMax= 3.65D-02

 Cycle   4  Pass 1  IDiag  1:
 E= -279.502157487778     Delta-E=       -0.018057765698 Rises=F Damp=F
 DIIS: error= 1.28D-03 at cycle   4 NSaved=   4.
 NSaved= 4 IEnMin= 4 EnMin= -279.502157487778     IErMin= 4 ErrMin= 1.28D-03
 ErrMax= 1.28D-03  0.00D+00 EMaxC= 1.00D-01 BMatC= 4.82D-04 BMatP= 2.73D-02
 IDIUse=3 WtCom= 9.87D-01 WtEn= 1.28D-02
 Coeff-Com: -0.116D-01 0.594D-01 0.162D+00 0.791D+00
 Coeff-En:   0.000D+00 0.000D+00 0.000D+00 0.100D+01
 Coeff:     -0.115D-01 0.587D-01 0.159D+00 0.793D+00
 Gap=     0.500 Goal=   None    Shift=    0.000
 RMSDP=8.87D-05 MaxDP=2.76D-03 DE=-1.81D-02 OVMax= 1.10D-02

 Cycle   5  Pass 1  IDiag  1:
 E= -279.502807983318     Delta-E=       -0.000650495541 Rises=F Damp=F
 DIIS: error= 7.27D-04 at cycle   5 NSaved=   5.
 NSaved= 5 IEnMin= 5 EnMin= -279.502807983318     IErMin= 5 ErrMin= 7.27D-04
 ErrMax= 7.27D-04  0.00D+00 EMaxC= 1.00D-01 BMatC= 8.45D-05 BMatP= 4.82D-04
 IDIUse=3 WtCom= 9.93D-01 WtEn= 7.27D-03
 Coeff-Com:  0.601D-02-0.720D-01-0.117D+00 0.219D-01 0.116D+01
 Coeff-En:   0.000D+00 0.000D+00 0.000D+00 0.000D+00 0.100D+01
 Coeff:      0.596D-02-0.715D-01-0.116D+00 0.217D-01 0.116D+01
 Gap=     0.500 Goal=   None    Shift=    0.000
 RMSDP=7.47D-05 MaxDP=2.05D-03 DE=-6.50D-04 OVMax= 1.08D-02

 Cycle   6  Pass 1  IDiag  1:
 E= -279.503110637923     Delta-E=       -0.000302654605 Rises=F Damp=F
 DIIS: error= 2.75D-04 at cycle   6 NSaved=   6.
 NSaved= 6 IEnMin= 6 EnMin= -279.503110637923     IErMin= 6 ErrMin= 2.75D-04
 ErrMax= 2.75D-04  0.00D+00 EMaxC= 1.00D-01 BMatC= 1.61D-05 BMatP= 8.45D-05
 IDIUse=3 WtCom= 9.97D-01 WtEn= 2.75D-03
 Coeff-Com:  0.764D-03-0.552D-03 0.514D-03-0.127D+00-0.202D+00 0.133D+01
 Coeff-En:   0.000D+00 0.000D+00 0.000D+00 0.000D+00 0.000D+00 0.100D+01
 Coeff:      0.761D-03-0.550D-03 0.512D-03-0.127D+00-0.202D+00 0.133D+01
 Gap=     0.501 Goal=   None    Shift=    0.000
 RMSDP=4.40D-05 MaxDP=1.21D-03 DE=-3.03D-04 OVMax= 5.33D-03

 Cycle   7  Pass 1  IDiag  1:
 E= -279.503180018224     Delta-E=       -0.000069380301 Rises=F Damp=F
 DIIS: error= 1.22D-04 at cycle   7 NSaved=   7.
 NSaved= 7 IEnMin= 7 EnMin= -279.503180018224     IErMin= 7 ErrMin= 1.22D-04
 ErrMax= 1.22D-04  0.00D+00 EMaxC= 1.00D-01 BMatC= 4.70D-06 BMatP= 1.61D-05
 IDIUse=3 WtCom= 9.99D-01 WtEn= 1.22D-03
 Coeff-Com: -0.911D-03 0.136D-01 0.265D-01-0.264D-01-0.296D+00 0.416D+00
 Coeff-Com:  0.867D+00
 Coeff-En:   0.000D+00 0.000D+00 0.000D+00 0.000D+00 0.000D+00 0.000D+00
 Coeff-En:   0.100D+01
 Coeff:     -0.910D-03 0.136D-01 0.264D-01-0.264D-01-0.295D+00 0.416D+00
 Coeff:      0.867D+00
 Gap=     0.501 Goal=   None    Shift=    0.000
 RMSDP=1.34D-05 MaxDP=3.77D-04 DE=-6.94D-05 OVMax= 1.54D-03

 Cycle   8  Pass 1  IDiag  1:
 E= -279.503189043356     Delta-E=       -0.000009025132 Rises=F Damp=F
 DIIS: error= 5.39D-05 at cycle   8 NSaved=   8.
 NSaved= 8 IEnMin= 8 EnMin= -279.503189043356     IErMin= 8 ErrMin= 5.39D-05
 ErrMax= 5.39D-05  0.00D+00 EMaxC= 1.00D-01 BMatC= 5.68D-07 BMatP= 4.70D-06
 IDIUse=1 WtCom= 1.00D+00 WtEn= 0.00D+00
 Coeff-Com: -0.451D-03 0.361D-02 0.789D-02 0.269D-01-0.443D-01-0.187D+00
 Coeff-Com:  0.135D+00 0.106D+01
 Coeff:     -0.451D-03 0.361D-02 0.789D-02 0.269D-01-0.443D-01-0.187D+00
 Coeff:      0.135D+00 0.106D+01
 Gap=     0.500 Goal=   None    Shift=    0.000
 RMSDP=6.90D-06 MaxDP=1.99D-04 DE=-9.03D-06 OVMax= 7.51D-04

 Cycle   9  Pass 1  IDiag  1:
 E= -279.503190753538     Delta-E=       -0.000001710183 Rises=F Damp=F
 DIIS: error= 1.45D-05 at cycle   9 NSaved=   9.
 NSaved= 9 IEnMin= 9 EnMin= -279.503190753538     IErMin= 9 ErrMin= 1.45D-05
 ErrMax= 1.45D-05  0.00D+00 EMaxC= 1.00D-01 BMatC= 6.12D-08 BMatP= 5.68D-07
 IDIUse=1 WtCom= 1.00D+00 WtEn= 0.00D+00
 Coeff-Com:  0.112D-03-0.164D-02-0.293D-02-0.148D-02 0.328D-01-0.309D-02
 Coeff-Com: -0.150D+00-0.102D+00 0.123D+01
 Coeff:      0.112D-03-0.164D-02-0.293D-02-0.148D-02 0.328D-01-0.309D-02
 Coeff:     -0.150D+00-0.102D+00 0.123D+01
 Gap=     0.500 Goal=   None    Shift=    0.000
 RMSDP=1.82D-06 MaxDP=6.06D-05 DE=-1.71D-06 OVMax= 1.57D-04

 Cycle  10  Pass 1  IDiag  1:
 E= -279.503190892951     Delta-E=       -0.000000139413 Rises=F Damp=F
 DIIS: error= 3.89D-06 at cycle  10 NSaved=  10.
 NSaved=10 IEnMin=10 EnMin= -279.503190892951     IErMin=10 ErrMin= 3.89D-06
 ErrMax= 3.89D-06  0.00D+00 EMaxC= 1.00D-01 BMatC= 4.85D-09 BMatP= 6.12D-08
 IDIUse=1 WtCom= 1.00D+00 WtEn= 0.00D+00
 Coeff-Com:  0.339D-04-0.289D-03-0.422D-03-0.262D-02 0.257D-02 0.188D-01
 Coeff-Com: -0.136D-01-0.800D-01-0.520D-01 0.113D+01
 Coeff:      0.339D-04-0.289D-03-0.422D-03-0.262D-02 0.257D-02 0.188D-01
 Coeff:     -0.136D-01-0.800D-01-0.520D-01 0.113D+01
 Gap=     0.500 Goal=   None    Shift=    0.000
 RMSDP=4.70D-07 MaxDP=1.92D-05 DE=-1.39D-07 OVMax= 3.67D-05

 Cycle  11  Pass 1  IDiag  1:
 E= -279.503190903439     Delta-E=       -0.000000010488 Rises=F Damp=F
 DIIS: error= 1.81D-06 at cycle  11 NSaved=  11.
 NSaved=11 IEnMin=11 EnMin= -279.503190903439     IErMin=11 ErrMin= 1.81D-06
 ErrMax= 1.81D-06  0.00D+00 EMaxC= 1.00D-01 BMatC= 5.49D-10 BMatP= 4.85D-09
 IDIUse=1 WtCom= 1.00D+00 WtEn= 0.00D+00
 Coeff-Com: -0.195D-04 0.229D-03 0.460D-03 0.468D-03-0.407D-02-0.300D-02
 Coeff-Com:  0.178D-01 0.309D-01-0.131D+00-0.180D+00 0.127D+01
 Coeff:     -0.195D-04 0.229D-03 0.460D-03 0.468D-03-0.407D-02-0.300D-02
 Coeff:      0.178D-01 0.309D-01-0.131D+00-0.180D+00 0.127D+01
 Gap=     0.500 Goal=   None    Shift=    0.000
 RMSDP=1.59D-07 MaxDP=5.81D-06 DE=-1.05D-08 OVMax= 1.58D-05

 Cycle  12  Pass 1  IDiag  1:
 E= -279.503190904888     Delta-E=       -0.000000001449 Rises=F Damp=F
 DIIS: error= 5.45D-07 at cycle  12 NSaved=  12.
 NSaved=12 IEnMin=12 EnMin= -279.503190904888     IErMin=12 ErrMin= 5.45D-07
 ErrMax= 5.45D-07  0.00D+00 EMaxC= 1.00D-01 BMatC= 5.95D-11 BMatP= 5.49D-10
 IDIUse=1 WtCom= 1.00D+00 WtEn= 0.00D+00
 Coeff-Com:  0.945D-06-0.249D-04-0.549D-04 0.160D-03 0.972D-03-0.206D-02
 Coeff-Com: -0.376D-02 0.510D-02 0.389D-01-0.101D+00-0.306D+00 0.137D+01
 Coeff:      0.945D-06-0.249D-04-0.549D-04 0.160D-03 0.972D-03-0.206D-02
 Coeff:     -0.376D-02 0.510D-02 0.389D-01-0.101D+00-0.306D+00 0.137D+01
 Gap=     0.500 Goal=   None    Shift=    0.000
 RMSDP=6.42D-08 MaxDP=2.54D-06 DE=-1.45D-09 OVMax= 6.18D-06

 Cycle  13  Pass 1  IDiag  1:
 E= -279.503190905075     Delta-E=       -0.000000000187 Rises=F Damp=F
 DIIS: error= 1.51D-07 at cycle  13 NSaved=  13.
 NSaved=13 IEnMin=13 EnMin= -279.503190905075     IErMin=13 ErrMin= 1.51D-07
 ErrMax= 1.51D-07  0.00D+00 EMaxC= 1.00D-01 BMatC= 3.37D-12 BMatP= 5.95D-11
 IDIUse=1 WtCom= 1.00D+00 WtEn= 0.00D+00
 Coeff-Com:  0.121D-05-0.134D-04-0.219D-04-0.799D-04 0.123D-03 0.684D-03
 Coeff-Com: -0.647D-03-0.323D-02 0.395D-03 0.387D-01-0.260D-01-0.342D+00
 Coeff-Com:  0.133D+01
 Coeff:      0.121D-05-0.134D-04-0.219D-04-0.799D-04 0.123D-03 0.684D-03
 Coeff:     -0.647D-03-0.323D-02 0.395D-03 0.387D-01-0.260D-01-0.342D+00
 Coeff:      0.133D+01
 Gap=     0.500 Goal=   None    Shift=    0.000
 RMSDP=1.75D-08 MaxDP=5.12D-07 DE=-1.87D-10 OVMax= 1.47D-06

 Cycle  14  Pass 1  IDiag  1:
 E= -279.503190905087     Delta-E=       -0.000000000012 Rises=F Damp=F
 DIIS: error= 2.25D-08 at cycle  14 NSaved=  14.
 NSaved=14 IEnMin=14 EnMin= -279.503190905087     IErMin=14 ErrMin= 2.25D-08
 ErrMax= 2.25D-08  0.00D+00 EMaxC= 1.00D-01 BMatC= 1.64D-13 BMatP= 3.37D-12
 IDIUse=1 WtCom= 1.00D+00 WtEn= 0.00D+00
 Coeff-Com: -0.182D-06 0.299D-05 0.544D-05 0.461D-05-0.788D-04 0.393D-04
 Coeff-Com:  0.255D-03 0.243D-03-0.234D-02 0.995D-03 0.178D-01-0.250D-01
 Coeff-Com: -0.206D+00 0.121D+01
 Coeff:     -0.182D-06 0.299D-05 0.544D-05 0.461D-05-0.788D-04 0.393D-04
 Coeff:      0.255D-03 0.243D-03-0.234D-02 0.995D-03 0.178D-01-0.250D-01
 Coeff:     -0.206D+00 0.121D+01
 Gap=     0.500 Goal=   None    Shift=    0.000
 RMSDP=3.54D-09 MaxDP=8.44D-08 DE=-1.16D-11 OVMax= 3.18D-07

 SCF Done:  E(RHF) =  -279.503190905     A.U. after   14 cycles
            NFock= 14  Conv=0.35D-08     -V/T= 2.0022
 KE= 2.788937918609D+02 PE=-8.957017855741D+02 EE= 2.201362708759D+02
 Leave Link  502 at Mon Feb 14 13:08:50 2022, MaxMem= 16106127360 cpu:              51.7 elap:               3.4
 (Enter /sw/contrib/gaussian/g16/B01/g16/l801.exe)
 ExpMin= 2.53D-02 ExpMax= 1.53D+04 ExpMxC= 5.22D+02 IAcc=3 IRadAn=         5 AccDes= 0.00D+00
 HarFok:  IExCor=  205 AccDes= 0.00D+00 IRadAn=         5 IDoV=-2 UseB2=F ITyADJ=14
 ICtDFT= 12500011 ScaDFX=  1.000000  1.000000  1.000000  1.000000
 Largest valence mixing into a core orbital is  2.07D-04
 Largest core mixing into a valence orbital is  3.59D-05
 Range of M.O.s used for correlation:     5   207
 NBasis=   207 NAE=    16 NBE=    16 NFC=     4 NFV=     0
 NROrb=    203 NOA=    12 NOB=    12 NVA=   191 NVB=   191

 **** Warning!!: The largest alpha MO coefficient is  0.17651846D+02

 Leave Link  801 at Mon Feb 14 13:08:50 2022, MaxMem= 16106127360 cpu:               2.0 elap:               0.1
 (Enter /sw/contrib/gaussian/g16/B01/g16/l906.exe)
 Frozen-core derivative calculation, NFC=   4 NFV=   0.
 FulOut=F Deriv=T AODrv=F NAtomX=     5
   MMem=          76  MDisk=          12 MDiskD=          12
  W3Min=      811440 MinDsk=     1524655 NBas6D=         245
 NBas2D=       30762    NTT=       30135    LW2=     3500000
    MDV= 16105579885 MDiskM=      328644 NBas2p=       30466
 Fully in-core method, ICMem=   960157634.
 IMap=   1   2   3   4   5   6   7   8   9  10  11  12  13  14  15  16
 JobTyp=1 Pass  1 fully in-core, NPsUse= 28.
 Compute canonical integrals.
 FoFCou: FMM=F IPFlag=           0 FMFlag=           0 FMFlg1=           0
         NFxFlg=           0 DoJE=F BraDBF=F KetDBF=F FulRan=T
         wScrn=  0.000000 ICntrl=       600 IOpCl=  1 I1Cent=           0 NGrid=           0
         NMat0=    1 NMatS0=  30762 NMatT0=    0 NMatD0=    1 NMtDS0=    0 NMtDT0=    0
 Symmetry not used in FoFCou.
 Spin components of T(2) and E(2):
     alpha-alpha T2 =       0.3382615365D-01 E2=     -0.1221970336D+00
     alpha-beta  T2 =       0.1857373863D+00 E2=     -0.6990024947D+00
     beta-beta   T2 =       0.3382615365D-01 E2=     -0.1221970336D+00
 The integrals were generated   1 times.
 ANorm=    0.1119548880D+01
 E2 =    -0.9433965618D+00 EUMP2 =    -0.28044658746692D+03
 Leave Link  906 at Mon Feb 14 13:08:59 2022, MaxMem= 16106127360 cpu:             242.2 elap:               8.7
 (Enter /sw/contrib/gaussian/g16/B01/g16/l1002.exe)
 Minotr:  Closed shell wavefunction.
          Computing MP2/KS-MP2 derivatives.
          Using Z-Vector for PSCF gradient.
          Skipping F1 and S1 gradient terms here.
          Frozen-core window.
          Direct CPHF calculation.
          Differentiating once with respect to electric field.
                with respect to dipole field.
          Electric field/nuclear overlap derivatives assumed to be zero.
          Using symmetry in CPHF.
          Requested convergence is 1.0D-10 RMS, and 1.0D-09 maximum.
          NewPWx=F KeepS1=T KeepF1=T KeepIn=T MapXYZ=F SortEE=F KeepMc=T.
 Keep R1 ints in memory in symmetry-blocked form, NReq=348888868.
 FoFCou: FMM=F IPFlag=           0 FMFlag=           0 FMFlg1=           0
         NFxFlg=           0 DoJE=F BraDBF=F KetDBF=F FulRan=T
         wScrn=  0.000000 ICntrl=       600 IOpCl=  0 I1Cent=           0 NGrid=           0
         NMat0=    1 NMatS0=  21528 NMatT0=    0 NMatD0=    1 NMtDS0=    0 NMtDT0=    0
 Petite list used in FoFCou.
          MDV=   16106127360 using IRadAn=       5.
          Solving linear equations separately, MaxMat=       0.
          There are     1 degrees of freedom in the 1st order CPHF.  IDoFFX=0 NUNeed=     1.
 LinEq1:  Iter=  0 NonCon=     1 RMS=5.90D-03 Max=1.29D-01 NDo=     1
 AX will form     1 AO Fock derivatives at one time.
 LinEq1:  Iter=  1 NonCon=     1 RMS=1.87D-03 Max=3.69D-02 NDo=     1
 LinEq1:  Iter=  2 NonCon=     1 RMS=8.49D-04 Max=1.37D-02 NDo=     1
 LinEq1:  Iter=  3 NonCon=     1 RMS=3.75D-04 Max=7.35D-03 NDo=     1
 LinEq1:  Iter=  4 NonCon=     1 RMS=1.16D-04 Max=1.84D-03 NDo=     1
 LinEq1:  Iter=  5 NonCon=     1 RMS=4.24D-05 Max=6.68D-04 NDo=     1
 LinEq1:  Iter=  6 NonCon=     1 RMS=1.90D-05 Max=2.27D-04 NDo=     1
 LinEq1:  Iter=  7 NonCon=     1 RMS=7.60D-06 Max=1.54D-04 NDo=     1
 LinEq1:  Iter=  8 NonCon=     1 RMS=3.25D-06 Max=3.24D-05 NDo=     1
 LinEq1:  Iter=  9 NonCon=     1 RMS=8.88D-07 Max=1.27D-05 NDo=     1
 LinEq1:  Iter= 10 NonCon=     1 RMS=1.75D-07 Max=1.89D-06 NDo=     1
 LinEq1:  Iter= 11 NonCon=     1 RMS=3.28D-08 Max=3.36D-07 NDo=     1
 LinEq1:  Iter= 12 NonCon=     1 RMS=7.86D-09 Max=1.23D-07 NDo=     1
 LinEq1:  Iter= 13 NonCon=     1 RMS=1.41D-09 Max=2.46D-08 NDo=     1
 LinEq1:  Iter= 14 NonCon=     1 RMS=2.57D-10 Max=3.60D-09 NDo=     1
 LinEq1:  Iter= 15 NonCon=     0 RMS=4.73D-11 Max=5.45D-10 NDo=     1
 Linear equations converged to 1.000D-10 1.000D-09 after    15 iterations.
 End of Minotr F.D. properties file   721 does not exist.
 End of Minotr F.D. properties file   722 does not exist.
 End of Minotr F.D. properties file   788 does not exist.
 Leave Link 1002 at Mon Feb 14 13:09:03 2022, MaxMem= 16106127360 cpu:              56.6 elap:               4.1
 (Enter /sw/contrib/gaussian/g16/B01/g16/l601.exe)
 Copying SCF densities to generalized density rwf, IOpCl= 0 IROHF=0.

 **********************************************************************

            Population analysis using the MP2 Density.

 **********************************************************************

 Orbital symmetries:
       Occupied  (A') (A') (A') (A') (A') (A') (A') (A') (A') (A')
                 (A") (A') (A") (A') (A") (A')
       Virtual   (A') (A") (A') (A') (A") (A') (A') (A') (A") (A')
                 (A") (A') (A') (A') (A") (A') (A') (A") (A') (A')
                 (A') (A') (A') (A') (A") (A') (A') (A") (A') (A')
                 (A") (A') (A") (A') (A') (A") (A') (A') (A") (A')
                 (A") (A') (A") (A') (A') (A") (A') (A') (A") (A')
                 (A") (A') (A') (A') (A") (A') (A") (A') (A") (A')
                 (A') (A') (A") (A') (A') (A") (A') (A") (A') (A')
                 (A") (A') (A') (A") (A") (A') (A') (A") (A') (A')
                 (A') (A") (A') (A") (A") (A') (A') (A") (A') (A')
                 (A") (A') (A') (A") (A') (A") (A') (A") (A') (A')
                 (A") (A') (A") (A') (A') (A") (A') (A') (A") (A')
                 (A") (A') (A') (A') (A") (A') (A') (A') (A") (A')
                 (A") (A') (A") (A') (A') (A") (A") (A') (A") (A')
                 (A') (A') (A') (A") (A") (A") (A') (A') (A') (A')
                 (A") (A') (A") (A') (A') (A") (A') (A') (A') (A')
                 (A") (A') (A') (A") (A') (A") (A') (A") (A') (A")
                 (A') (A") (A') (A") (A') (A") (A") (A') (A") (A')
                 (A") (A') (A") (A') (A") (A') (A") (A") (A') (A')
                 (A') (A') (A') (A') (A') (A') (A') (A') (A') (A')
                 (A')
 The electronic state is 1-A'.
 Alpha  occ. eigenvalues --  -20.68859 -20.68471 -20.65873 -15.81142  -1.63207
 Alpha  occ. eigenvalues --   -1.49579  -1.25342  -0.94675  -0.77399  -0.76177
 Alpha  occ. eigenvalues --   -0.71391  -0.68049  -0.62234  -0.58878  -0.48439
 Alpha  occ. eigenvalues --   -0.47059
 Alpha virt. eigenvalues --    0.02989   0.07467   0.08578   0.10172   0.13377
 Alpha virt. eigenvalues --    0.13408   0.14429   0.15477   0.17844   0.19406
 Alpha virt. eigenvalues --    0.20017   0.20637   0.22113   0.23626   0.23745
 Alpha virt. eigenvalues --    0.26616   0.29442   0.30427   0.31092   0.34332
 Alpha virt. eigenvalues --    0.35007   0.38760   0.42246   0.43178   0.52714
 Alpha virt. eigenvalues --    0.53051   0.55902   0.58186   0.63109   0.63798
 Alpha virt. eigenvalues --    0.67146   0.68524   0.70650   0.71141   0.72445
 Alpha virt. eigenvalues --    0.72999   0.74466   0.79208   0.79267   0.81000
 Alpha virt. eigenvalues --    0.81361   0.83319   0.86905   0.90920   0.92285
 Alpha virt. eigenvalues --    0.92722   0.95714   0.97962   0.98548   1.01695
 Alpha virt. eigenvalues --    1.05264   1.05573   1.08446   1.11903   1.14214
 Alpha virt. eigenvalues --    1.19011   1.22217   1.23413   1.33958   1.35110
 Alpha virt. eigenvalues --    1.38782   1.45402   1.48829   1.51022   1.53829
 Alpha virt. eigenvalues --    1.56690   1.57952   1.61400   1.66640   1.67022
 Alpha virt. eigenvalues --    1.70295   1.79365   1.83042   1.83504   1.88095
 Alpha virt. eigenvalues --    1.90980   1.95360   1.99472   2.00576   2.07827
 Alpha virt. eigenvalues --    2.12129   2.13302   2.15099   2.22497   2.26526
 Alpha virt. eigenvalues --    2.26572   2.29049   2.31553   2.34719   2.38703
 Alpha virt. eigenvalues --    2.42667   2.43119   2.45447   2.46413   2.47829
 Alpha virt. eigenvalues --    2.50316   2.59088   2.59869   2.62280   2.62863
 Alpha virt. eigenvalues --    2.63597   2.67067   2.76135   2.82920   2.85946
 Alpha virt. eigenvalues --    2.88897   2.89683   2.92794   2.96055   3.02738
 Alpha virt. eigenvalues --    3.06661   3.12498   3.20557   3.22934   3.31861
 Alpha virt. eigenvalues --    3.34325   3.52128   3.64426   3.83971   3.84743
 Alpha virt. eigenvalues --    4.14995   4.16454   4.18541   4.28094   4.35288
 Alpha virt. eigenvalues --    4.39482   4.46597   4.52135   4.67399   4.71248
 Alpha virt. eigenvalues --    4.80986   4.82683   4.83170   4.89530   5.02174
 Alpha virt. eigenvalues --    5.07843   5.10733   5.13947   5.18204   5.24615
 Alpha virt. eigenvalues --    5.27302   5.30703   5.33127   5.36535   5.60825
 Alpha virt. eigenvalues --    5.68999   5.77919   5.83344   5.95485   6.17124
 Alpha virt. eigenvalues --    6.31066   6.33935   6.39588   6.49363   6.50558
 Alpha virt. eigenvalues --    6.61522   6.66932   6.70360   6.75940   6.76521
 Alpha virt. eigenvalues --    6.83869   6.90194   7.01683   7.05879   7.05940
 Alpha virt. eigenvalues --    7.09162   7.12939   7.15240   7.18302   7.23228
 Alpha virt. eigenvalues --    7.24389   7.31206   7.34333   7.35475   7.40998
 Alpha virt. eigenvalues --    7.43324   7.48584   7.61016   7.63237   7.64098
 Alpha virt. eigenvalues --    7.66892   7.79768   7.90308   8.09741   8.31876
 Alpha virt. eigenvalues --    8.41044   8.54671  13.40880  14.47119  15.16638
 Alpha virt. eigenvalues --   16.45593
          Condensed to atoms (all electrons):
               1          2          3          4          5
     1  H    0.589788   0.128396   0.020044   0.012496  -0.000652
     2  O    0.128396   8.322725  -0.173820  -0.090461   0.015540
     3  O    0.020044  -0.173820   8.478035  -0.134053  -0.040879
     4  N    0.012496  -0.090461  -0.134053   6.975796  -0.056493
     5  O   -0.000652   0.015540  -0.040879  -0.056493   8.273420
 Mulliken charges:
               1
     1  H    0.249928
     2  O   -0.202381
     3  O   -0.149327
     4  N    0.292716
     5  O   -0.190936
 Sum of Mulliken charges =  -0.00000
 Mulliken charges with hydrogens summed into heavy atoms:
               1
     2  O    0.047547
     3  O   -0.149327
     4  N    0.292716
     5  O   -0.190936
 Electronic spatial extent (au):  <R**2>=            251.9895
 Charge=             -0.0000 electrons
 Dipole moment (field-independent basis, Debye):
    X=              0.4710    Y=              1.3176    Z=             -0.0000  Tot=              1.3992
 Quadrupole moment (field-independent basis, Debye-Ang):
   XX=            -22.4171   YY=            -18.6158   ZZ=            -21.9942
   XY=              3.2892   XZ=             -0.0000   YZ=              0.0000
 Traceless Quadrupole moment (field-independent basis, Debye-Ang):
   XX=             -1.4080   YY=              2.3932   ZZ=             -0.9852
   XY=              3.2892   XZ=             -0.0000   YZ=              0.0000
 Octapole moment (field-independent basis, Debye-Ang**2):
  XXX=              2.7828  YYY=             11.0587  ZZZ=              0.0000  XYY=              7.8204
  XXY=              6.5458  XXZ=             -0.0000  XZZ=             -1.6109  YZZ=             -0.8869
  YYZ=             -0.0000  XYZ=             -0.0000
 Hexadecapole moment (field-independent basis, Debye-Ang**3):
 XXXX=           -158.0617 YYYY=            -89.0863 ZZZZ=            -18.2267 XXXY=            -36.3205
 XXXZ=              0.0000 YYYX=            -30.4393 YYYZ=              0.0000 ZZZX=              0.0000
 ZZZY=              0.0000 XXYY=            -33.7600 XXZZ=            -30.8131 YYZZ=            -20.5276
 XXYZ=              0.0000 YYXZ=              0.0000 ZZXY=            -14.9401
 N-N= 1.171685319322D+02 E-N=-8.964736262568D+02  KE= 2.802394763419D+02
 Symmetry A'   KE= 2.662638731397D+02
 Symmetry A"   KE= 1.397560320223D+01
 No NMR shielding tensors so no spin-rotation constants.
 Leave Link  601 at Mon Feb 14 13:09:03 2022, MaxMem= 16106127360 cpu:               4.8 elap:               0.2
 (Enter /sw/contrib/gaussian/g16/B01/g16/l9999.exe)
 1\1\GINC-N2228\SP\RMP2-FC\Aug-CC-pVTZ\H1N1O3\CGAVINH\14-Feb-2022\0\\#p
  SP mp2/aug-cc-pvtz density=current\\title\\0,1\H\O,1,0.96897556\O,2,1
 .45491931,1,97.59494903\N,3,1.45878406,2,102.29752444,1,180.,0\O,4,1.1
 610196051,3,109.06955123,2,180.,0\\Version=ES64L-G16RevB.01\State=1-A'
 \HF=-279.5031909\MP2=-280.4465875\RMSD=3.535e-09\Dipole=-0.1316494,0.,
 -0.5345254\Quadrupole=-1.5121943,-0.732458,2.2446522,0.,2.109164,0.\PG
 =CS [SG(H1N1O3)]\\@


 NOTHING WILL BE ATTEMPTED IF ALL POSSIBLE OBJECTIONS
 MUST FIRST BE OVERCOME.

                               -- THE GOLDEN PRINCIPLE,
                    PAUL DICKSON'S "THE OFFICIAL RULES"
 Job cpu time:       0 days  0 hours  6 minutes 18.2 seconds.
 Elapsed time:       0 days  0 hours  0 minutes 17.4 seconds.
 File lengths (MBytes):  RWF=     22 Int=      0 D2E=      0 Chk=      8 Scr=      1
 Normal termination of Gaussian 16 at Mon Feb 14 13:09:04 2022.
