title                                                                   
SP        RMP2-FC                                                     Aug-CC-pVTZ         
Number of atoms                            I                5
Info1-9                                    I   N=           9
          33          24           0           0           0         110
           1           2           1
Full Title                                 C   N=           1
title       
Route                                      C   N=           4
#p SP mp2/aug-cc-pvtz density=current           
Charge                                     I                0
Multiplicity                               I                1
Number of electrons                        I               32
Number of alpha electrons                  I               16
Number of beta electrons                   I               16
Number of basis functions                  I              207
Number of independent functions            I              207
Number of point charges in /Mol/           I                0
Number of translation vectors              I                0
Atomic numbers                             I   N=           5
           1           8           8           7           8
Nuclear charges                            R   N=           5
  1.00000000E+00  8.00000000E+00  8.00000000E+00  7.00000000E+00  8.00000000E+00
Current cartesian coordinates              R   N=          15
  2.97169585E+00  3.16874122E+00  2.42257524E-32  2.77952694E+00  1.34775452E+00
  1.24580765E-32  2.11755477E-16  1.27153213E+00 -2.52152746E-32 -5.13090208E-01
 -1.43699999E+00 -1.05840945E-32 -2.70203499E+00 -1.75800432E+00 -1.02017925E-31
Number of symbols in /Mol/                 I                0
Force Field                                I                0
Atom Types                                 C   N=           5
                                                            
Int Atom Types                             I   N=           5
           0           0           0           0           0
MM charges                                 R   N=           5
  0.00000000E+00  0.00000000E+00  0.00000000E+00  0.00000000E+00  0.00000000E+00
Integer atomic weights                     I   N=           5
           1          16          16          14          16
Real atomic weights                        R   N=           5
  1.00782504E+00  1.59949146E+01  1.59949146E+01  1.40030740E+01  1.59949146E+01
Atom fragment info                         I   N=           5
           0           0           0           0           0
Atom residue num                           I   N=           5
           0           0           0           0           0
Nuclear spins                              I   N=           5
           1           0           0           2           0
Nuclear ZEff                               R   N=           5
 -1.00000000E+00 -5.60000000E+00 -5.60000000E+00 -4.55000000E+00 -5.60000000E+00
Nuclear ZNuc                               R   N=           5
  1.00000000E+00  8.00000000E+00  8.00000000E+00  7.00000000E+00  8.00000000E+00
Nuclear QMom                               R   N=           5
  0.00000000E+00  0.00000000E+00  0.00000000E+00  2.04400000E+00  0.00000000E+00
Nuclear GFac                               R   N=           5
  2.79284600E+00  0.00000000E+00  0.00000000E+00  4.03761000E-01  0.00000000E+00
MicOpt                                     I   N=           5
          -1          -1          -1          -1          -1
Number of residues                         I                0
Number of secondary structures             I                0
SymInf integers                            I   N=          26
           1           2           1           1           1           1
           1          -1           0           0           0           0
           0           0           0           0           0           0
           0           0           0           0           0           0
           0           0
RotTr to input orientation                 R   N=          12
 -9.94477781E-01 -9.91859341E-17 -1.04947338E-01  1.04947338E-01 -7.18313880E-17
 -9.94477781E-01  9.10996947E-17 -1.00000000E+00  8.18440191E-17  2.62273453E+00
  0.00000000E+00  3.46311431E+00
Number of contracted shells                I               65
Number of primitive shells                 I              119
Pure/Cartesian d shells                    I                0
Pure/Cartesian f shells                    I                0
Highest angular momentum                   I                3
Largest degree of contraction              I                7
Shell types                                I   N=          65
           0           0           0           0           1           1
           1          -2          -2           0           0           0
           0           0           1           1           1           1
          -2          -2          -2          -3          -3           0
           0           0           0           0           1           1
           1           1          -2          -2          -2          -3
          -3           0           0           0           0           0
           1           1           1           1          -2          -2
          -2          -3          -3           0           0           0
           0           0           1           1           1           1
          -2          -2          -2          -3          -3
Number of primitives per shell             I   N=          65
           3           1           1           1           1           1
           1           1           1           7           6           1
           1           1           3           1           1           1
           1           1           1           1           1           7
           6           1           1           1           3           1
           1           1           1           1           1           1
           1           7           6           1           1           1
           3           1           1           1           1           1
           1           1           1           7           6           1
           1           1           3           1           1           1
           1           1           1           1           1
Shell to atom map                          I   N=          65
           1           1           1           1           1           1
           1           1           1           2           2           2
           2           2           2           2           2           2
           2           2           2           2           2           3
           3           3           3           3           3           3
           3           3           3           3           3           3
           3           4           4           4           4           4
           4           4           4           4           4           4
           4           4           4           5           5           5
           5           5           5           5           5           5
           5           5           5           5           5
Primitive exponents                        R   N=         119
  3.38700000E+01  5.09500000E+00  1.15900000E+00  3.25800000E-01  1.02700000E-01
  2.52600000E-02  1.40700000E+00  3.88000000E-01  1.02000000E-01  1.05700000E+00
  2.47000000E-01  1.53300000E+04  2.29900000E+03  5.22400000E+02  1.47300000E+02
  4.75500000E+01  1.67600000E+01  6.20700000E+00  5.22400000E+02  1.47300000E+02
  4.75500000E+01  1.67600000E+01  6.20700000E+00  6.88200000E-01  1.75200000E+00
  2.38400000E-01  7.37600000E-02  3.44600000E+01  7.74900000E+00  2.28000000E+00
  7.15600000E-01  2.14000000E-01  5.97400000E-02  2.31400000E+00  6.45000000E-01
  2.14000000E-01  1.42800000E+00  5.00000000E-01  1.53300000E+04  2.29900000E+03
  5.22400000E+02  1.47300000E+02  4.75500000E+01  1.67600000E+01  6.20700000E+00
  5.22400000E+02  1.47300000E+02  4.75500000E+01  1.67600000E+01  6.20700000E+00
  6.88200000E-01  1.75200000E+00  2.38400000E-01  7.37600000E-02  3.44600000E+01
  7.74900000E+00  2.28000000E+00  7.15600000E-01  2.14000000E-01  5.97400000E-02
  2.31400000E+00  6.45000000E-01  2.14000000E-01  1.42800000E+00  5.00000000E-01
  1.14200000E+04  1.71200000E+03  3.89300000E+02  1.10000000E+02  3.55700000E+01
  1.25400000E+01  4.64400000E+00  3.89300000E+02  1.10000000E+02  3.55700000E+01
  1.25400000E+01  4.64400000E+00  5.11800000E-01  1.29300000E+00  1.78700000E-01
  5.76000000E-02  2.66300000E+01  5.94800000E+00  1.74200000E+00  5.55000000E-01
  1.72500000E-01  4.91000000E-02  1.65400000E+00  4.69000000E-01  1.51000000E-01
  1.09300000E+00  3.64000000E-01  1.53300000E+04  2.29900000E+03  5.22400000E+02
  1.47300000E+02  4.75500000E+01  1.67600000E+01  6.20700000E+00  5.22400000E+02
  1.47300000E+02  4.75500000E+01  1.67600000E+01  6.20700000E+00  6.88200000E-01
  1.75200000E+00  2.38400000E-01  7.37600000E-02  3.44600000E+01  7.74900000E+00
  2.28000000E+00  7.15600000E-01  2.14000000E-01  5.97400000E-02  2.31400000E+00
  6.45000000E-01  2.14000000E-01  1.42800000E+00  5.00000000E-01
Contraction coefficients                   R   N=         119
  2.54948632E-02  1.90362766E-01  8.52162022E-01  1.00000000E+00  1.00000000E+00
  1.00000000E+00  1.00000000E+00  1.00000000E+00  1.00000000E+00  1.00000000E+00
  1.00000000E+00  5.19808943E-04  4.02025621E-03  2.07128267E-02  8.10105536E-02
  2.35962985E-01  4.42653446E-01  3.57064423E-01 -4.42115008E-05 -1.22591041E-03
 -1.05517725E-02 -6.74452633E-02 -1.71198607E-01  1.07329856E+00  1.00000000E+00
  1.00000000E+00  1.00000000E+00  4.11634896E-02  2.57762836E-01  8.02419274E-01
  1.00000000E+00  1.00000000E+00  1.00000000E+00  1.00000000E+00  1.00000000E+00
  1.00000000E+00  1.00000000E+00  1.00000000E+00  5.19808943E-04  4.02025621E-03
  2.07128267E-02  8.10105536E-02  2.35962985E-01  4.42653446E-01  3.57064423E-01
 -4.42115008E-05 -1.22591041E-03 -1.05517725E-02 -6.74452633E-02 -1.71198607E-01
  1.07329856E+00  1.00000000E+00  1.00000000E+00  1.00000000E+00  4.11634896E-02
  2.57762836E-01  8.02419274E-01  1.00000000E+00  1.00000000E+00  1.00000000E+00
  1.00000000E+00  1.00000000E+00  1.00000000E+00  1.00000000E+00  1.00000000E+00
  5.34563860E-04  4.13435660E-03  2.12335358E-02  8.25006224E-02  2.38138871E-01
  4.42551547E-01  3.53757422E-01 -4.89867350E-05 -1.19527323E-03 -1.03490714E-02
 -6.48680190E-02 -1.71552477E-01  1.07289568E+00  1.00000000E+00  1.00000000E+00
  1.00000000E+00  3.98072123E-02  2.49002660E-01  8.10479727E-01  1.00000000E+00
  1.00000000E+00  1.00000000E+00  1.00000000E+00  1.00000000E+00  1.00000000E+00
  1.00000000E+00  1.00000000E+00  5.19808943E-04  4.02025621E-03  2.07128267E-02
  8.10105536E-02  2.35962985E-01  4.42653446E-01  3.57064423E-01 -4.42115008E-05
 -1.22591041E-03 -1.05517725E-02 -6.74452633E-02 -1.71198607E-01  1.07329856E+00
  1.00000000E+00  1.00000000E+00  1.00000000E+00  4.11634896E-02  2.57762836E-01
  8.02419274E-01  1.00000000E+00  1.00000000E+00  1.00000000E+00  1.00000000E+00
  1.00000000E+00  1.00000000E+00  1.00000000E+00  1.00000000E+00
Coordinates of each shell                  R   N=         195
  2.97169585E+00  3.16874122E+00  5.49434689E-32  2.97169585E+00  3.16874122E+00
  5.49434689E-32  2.97169585E+00  3.16874122E+00  5.49434689E-32  2.97169585E+00
  3.16874122E+00  5.49434689E-32  2.97169585E+00  3.16874122E+00  5.49434689E-32
  2.97169585E+00  3.16874122E+00  5.49434689E-32  2.97169585E+00  3.16874122E+00
  5.49434689E-32  2.97169585E+00  3.16874122E+00  5.49434689E-32  2.97169585E+00
  3.16874122E+00  5.49434689E-32  2.77952694E+00  1.34775452E+00  5.13904720E-32
  2.77952694E+00  1.34775452E+00  5.13904720E-32  2.77952694E+00  1.34775452E+00
  5.13904720E-32  2.77952694E+00  1.34775452E+00  5.13904720E-32  2.77952694E+00
  1.34775452E+00  5.13904720E-32  2.77952694E+00  1.34775452E+00  5.13904720E-32
  2.77952694E+00  1.34775452E+00  5.13904720E-32  2.77952694E+00  1.34775452E+00
  5.13904720E-32  2.77952694E+00  1.34775452E+00  5.13904720E-32  2.77952694E+00
  1.34775452E+00  5.13904720E-32  2.77952694E+00  1.34775452E+00  5.13904720E-32
  2.77952694E+00  1.34775452E+00  5.13904720E-32  2.77952694E+00  1.34775452E+00
  5.13904720E-32  2.77952694E+00  1.34775452E+00  5.13904720E-32  8.33817990E-18
  1.27153213E+00  0.00000000E+00  8.33817990E-18  1.27153213E+00  0.00000000E+00
  8.33817990E-18  1.27153213E+00  0.00000000E+00  8.33817990E-18  1.27153213E+00
  0.00000000E+00  8.33817990E-18  1.27153213E+00  0.00000000E+00  8.33817990E-18
  1.27153213E+00  0.00000000E+00  8.33817990E-18  1.27153213E+00  0.00000000E+00
  8.33817990E-18  1.27153213E+00  0.00000000E+00  8.33817990E-18  1.27153213E+00
  0.00000000E+00  8.33817990E-18  1.27153213E+00  0.00000000E+00  8.33817990E-18
  1.27153213E+00  0.00000000E+00  8.33817990E-18  1.27153213E+00  0.00000000E+00
  8.33817990E-18  1.27153213E+00  0.00000000E+00  8.33817990E-18  1.27153213E+00
  0.00000000E+00 -5.13090208E-01 -1.43699999E+00 -9.48648765E-33 -5.13090208E-01
 -1.43699999E+00 -9.48648765E-33 -5.13090208E-01 -1.43699999E+00 -9.48648765E-33
 -5.13090208E-01 -1.43699999E+00 -9.48648765E-33 -5.13090208E-01 -1.43699999E+00
 -9.48648765E-33 -5.13090208E-01 -1.43699999E+00 -9.48648765E-33 -5.13090208E-01
 -1.43699999E+00 -9.48648765E-33 -5.13090208E-01 -1.43699999E+00 -9.48648765E-33
 -5.13090208E-01 -1.43699999E+00 -9.48648765E-33 -5.13090208E-01 -1.43699999E+00
 -9.48648765E-33 -5.13090208E-01 -1.43699999E+00 -9.48648765E-33 -5.13090208E-01
 -1.43699999E+00 -9.48648765E-33 -5.13090208E-01 -1.43699999E+00 -9.48648765E-33
 -5.13090208E-01 -1.43699999E+00 -9.48648765E-33 -2.70203499E+00 -1.75800432E+00
 -4.99577289E-32 -2.70203499E+00 -1.75800432E+00 -4.99577289E-32 -2.70203499E+00
 -1.75800432E+00 -4.99577289E-32 -2.70203499E+00 -1.75800432E+00 -4.99577289E-32
 -2.70203499E+00 -1.75800432E+00 -4.99577289E-32 -2.70203499E+00 -1.75800432E+00
 -4.99577289E-32 -2.70203499E+00 -1.75800432E+00 -4.99577289E-32 -2.70203499E+00
 -1.75800432E+00 -4.99577289E-32 -2.70203499E+00 -1.75800432E+00 -4.99577289E-32
 -2.70203499E+00 -1.75800432E+00 -4.99577289E-32 -2.70203499E+00 -1.75800432E+00
 -4.99577289E-32 -2.70203499E+00 -1.75800432E+00 -4.99577289E-32 -2.70203499E+00
 -1.75800432E+00 -4.99577289E-32 -2.70203499E+00 -1.75800432E+00 -4.99577289E-32
Num ILSW                                   I              100
ILSW                                       I   N=         100
           0           0           0           0           2           0
           0           0           0           0           0          -1
           5           0           0           0           0           0
           0           0           0           0           0           0
           1           0           0           0           0           0
           0           0      100000           0          -1           0
           0           0           0           0           0           0
           0           0           0           1           0           0
           0 -2000000000           1           0           0           0
           0           0           4          52           0           0
           0           0           0           0           0           0
           0           0           0           5           0           1
           0           0           0           0           0           0
           0           0           0           0           0           0
           0           0           0           0           0           0
           0           0           0           0           0           0
           0           0           0           0
Num RLSW                                   I               52
RLSW                                       R   N=          52
  1.00000000E+00  1.00000000E+00  1.00000000E+00  1.00000000E+00  1.00000000E+00
  0.00000000E+00  0.00000000E+00  1.00000000E+00  0.00000000E+00  0.00000000E+00
  0.00000000E+00  0.00000000E+00  1.00000000E+00  0.00000000E+00  0.00000000E+00
  0.00000000E+00  0.00000000E+00  1.00000000E+00  0.00000000E+00  0.00000000E+00
  0.00000000E+00  0.00000000E+00  1.00000000E+00  0.00000000E+00  0.00000000E+00
  0.00000000E+00  0.00000000E+00  1.00000000E+00  0.00000000E+00  0.00000000E+00
  0.00000000E+00  0.00000000E+00  1.00000000E+00  0.00000000E+00  0.00000000E+00
  0.00000000E+00  0.00000000E+00  0.00000000E+00  1.00000000E+00  1.00000000E+00
  0.00000000E+00  1.00000000E+00  0.00000000E+00  0.00000000E+00  0.00000000E+00
  0.00000000E+00  0.00000000E+00  0.00000000E+00  0.00000000E+00  0.00000000E+00
  0.00000000E+00  0.00000000E+00
MxBond                                     I                2
NBond                                      I   N=           5
           1           2           2           2           1
IBond                                      I   N=          10
           2           0           1           3           2           4
           3           5           4           0
RBond                                      R   N=          10
  1.00000000E+00  0.00000000E+00  1.00000000E+00  1.00000000E+00  1.00000000E+00
  1.00000000E+00  1.00000000E+00  2.00000000E+00  2.00000000E+00  0.00000000E+00
Virial Ratio                               R      2.002447396269732E+00
SCF Energy                                 R     -2.795001882434757E+02
MP2 Energy                                 R     -2.804465946784873E+02
Total Energy                               R     -2.804465946784873E+02
Post-SCF wavefunction norm                 R      1.120900481080809E+00
RMS Density                                R      3.956657300346678E-09
Job Status                                 I                1
Nuclear derivative order                   I                0
External E-field                           R   N=          35
  0.00000000E+00  0.00000000E+00  0.00000000E+00  0.00000000E+00  0.00000000E+00
  0.00000000E+00  0.00000000E+00  0.00000000E+00  0.00000000E+00  0.00000000E+00
  0.00000000E+00  0.00000000E+00  0.00000000E+00  0.00000000E+00  0.00000000E+00
  0.00000000E+00  0.00000000E+00  0.00000000E+00  0.00000000E+00  0.00000000E+00
  0.00000000E+00  0.00000000E+00  0.00000000E+00  0.00000000E+00  0.00000000E+00
  0.00000000E+00  0.00000000E+00  0.00000000E+00  0.00000000E+00  0.00000000E+00
  0.00000000E+00  0.00000000E+00  0.00000000E+00  0.00000000E+00  0.00000000E+00
IOpCl                                      I                0
IROHF                                      I                0
Alpha Orbital Energies                     R   N=         207
 -2.06918053E+01 -2.06845784E+01 -2.06613959E+01 -1.58131543E+01 -1.62358333E+00
 -1.48930242E+00 -1.25732675E+00 -9.47843111E-01 -7.71094666E-01 -7.57882932E-01
 -7.10366141E-01 -6.79377511E-01 -6.18887376E-01 -5.87100103E-01 -4.88134732E-01
 -4.72861527E-01  2.95943857E-02  7.16532127E-02  8.55106209E-02  1.01638419E-01
  1.33080848E-01  1.33972112E-01  1.43993269E-01  1.54458712E-01  1.78291703E-01
  1.94326417E-01  1.99874714E-01  2.06161588E-01  2.17517367E-01  2.29818666E-01
  2.37245380E-01  2.65937185E-01  2.93303459E-01  3.03744205E-01  3.10081208E-01
  3.42500226E-01  3.49105835E-01  3.86994894E-01  4.21216932E-01  4.31374258E-01
  5.27069106E-01  5.28919953E-01  5.58227347E-01  5.81182026E-01  6.25640185E-01
  6.38407770E-01  6.74555895E-01  6.84642759E-01  7.05045042E-01  7.11620348E-01
  7.23229056E-01  7.29805173E-01  7.44815654E-01  7.90394707E-01  7.91864749E-01
  8.10325996E-01  8.12425535E-01  8.29461303E-01  8.68062319E-01  9.06630284E-01
  9.21663568E-01  9.24927785E-01  9.57249570E-01  9.76668619E-01  9.83554252E-01
  1.01640373E+00  1.05082327E+00  1.05518825E+00  1.08082567E+00  1.11587851E+00
  1.13875108E+00  1.18835657E+00  1.22076113E+00  1.23146546E+00  1.33838122E+00
  1.34943343E+00  1.38604850E+00  1.45295309E+00  1.48806850E+00  1.51008765E+00
  1.53705298E+00  1.56562063E+00  1.57869613E+00  1.61224362E+00  1.66118549E+00
  1.66885131E+00  1.70302295E+00  1.79105670E+00  1.83014647E+00  1.83436267E+00
  1.87666033E+00  1.90870623E+00  1.95593352E+00  1.99015459E+00  2.00743777E+00
  2.07677053E+00  2.11720620E+00  2.13176080E+00  2.14671697E+00  2.22365827E+00
  2.26101183E+00  2.26356475E+00  2.28856862E+00  2.31254684E+00  2.33938187E+00
  2.38799637E+00  2.42172524E+00  2.42619662E+00  2.45294151E+00  2.46307425E+00
  2.47476833E+00  2.49962109E+00  2.58735263E+00  2.59432087E+00  2.61542940E+00
  2.62227188E+00  2.63000231E+00  2.66264986E+00  2.75646703E+00  2.82363669E+00
  2.85108907E+00  2.87611933E+00  2.88573366E+00  2.91877224E+00  2.95402854E+00
  3.01379998E+00  3.06834474E+00  3.12504618E+00  3.18451810E+00  3.22185456E+00
  3.31059988E+00  3.34749261E+00  3.51132658E+00  3.64073881E+00  3.83824051E+00
  3.84050548E+00  4.14578008E+00  4.15769038E+00  4.18119299E+00  4.25559962E+00
  4.34776618E+00  4.38948727E+00  4.44802810E+00  4.52172695E+00  4.65938856E+00
  4.70192015E+00  4.80336824E+00  4.82359974E+00  4.83080246E+00  4.89435352E+00
  5.02196923E+00  5.07688285E+00  5.09994772E+00  5.14477753E+00  5.17843980E+00
  5.24029122E+00  5.27202260E+00  5.30771984E+00  5.32733907E+00  5.35120793E+00
  5.59678908E+00  5.67336838E+00  5.76478501E+00  5.79975180E+00  5.95176962E+00
  6.16518132E+00  6.33461958E+00  6.33575096E+00  6.39825686E+00  6.49497331E+00
  6.50561870E+00  6.61737857E+00  6.67868512E+00  6.70150110E+00  6.75631671E+00
  6.75884196E+00  6.83204616E+00  6.89681680E+00  7.00030894E+00  7.03312427E+00
  7.04388738E+00  7.07857625E+00  7.12242911E+00  7.13917550E+00  7.17650807E+00
  7.22076982E+00  7.23761533E+00  7.30422075E+00  7.32457135E+00  7.34749411E+00
  7.39539649E+00  7.41142528E+00  7.48288991E+00  7.59575730E+00  7.61202352E+00
  7.61883846E+00  7.65973390E+00  7.77291975E+00  7.88290820E+00  8.06568616E+00
  8.29286327E+00  8.39108826E+00  8.54486408E+00  1.33431139E+01  1.43736195E+01
  1.51444189E+01  1.61503559E+01
Alpha MO coefficients                      R   N=       42849
  9.64294388E-05 -6.54912266E-04 -7.59483540E-04 -8.30119515E-06 -2.58488809E-05
 -2.79507324E-05  0.00000000E+00 -4.84425681E-05  8.23724189E-05  0.00000000E+00
  9.07783104E-05  5.01958842E-05  0.00000000E+00  3.51715511E-05  0.00000000E+00
  0.00000000E+00 -4.70586432E-05  2.30373765E-05 -3.80922970E-07  0.00000000E+00
  0.00000000E+00 -1.32707591E-04  1.18101086E-04  4.45000982E-03 -3.00038360E-04
  2.65736911E-05  1.42989793E-03  1.74058731E-03  9.84957544E-05  6.45165347E-06
  0.00000000E+00 -5.41170765E-04 -2.53654371E-05  0.00000000E+00 -9.83177492E-04
  8.08977529E-04  0.00000000E+00 -3.81700910E-04  7.14447672E-05  0.00000000E+00
  3.27233521E-05  0.00000000E+00  0.00000000E+00 -6.15277797E-05  6.33528443E-06
 -3.59051958E-04  0.00000000E+00  0.00000000E+00  7.02868763E-04 -4.08906451E-05
 -4.32754565E-04  0.00000000E+00  0.00000000E+00  2.28188073E-04 -1.93393482E-05
  0.00000000E+00  7.51961692E-05  1.22027348E-05  0.00000000E+00  0.00000000E+00
 -1.02941608E-04 -1.15650788E-06  0.00000000E+00  2.54031335E-04 -3.02554364E-05
  0.00000000E+00  0.00000000E+00 -3.57076245E-04  6.51621704E-05  9.76924114E-01
 -9.21273634E-03  4.32905517E-02  2.20854890E-03 -8.26952218E-04  1.44700261E-03
 -1.36940695E-03  0.00000000E+00 -1.36764981E-03  1.40175009E-03  0.00000000E+00
  1.66877065E-04 -1.15682760E-03  0.00000000E+00 -1.14286036E-04 -1.02313341E-05
  0.00000000E+00  5.01795155E-05  0.00000000E+00  0.00000000E+00 -4.20522636E-05
  2.12881573E-05  7.27761987E-04  0.00000000E+00  0.00000000E+00 -2.02099945E-04
 -3.81277441E-04 -3.73382765E-04  0.00000000E+00  0.00000000E+00 -2.92374073E-04
 -3.62724096E-04  0.00000000E+00  4.43519721E-05 -5.01511369E-05  0.00000000E+00
  0.00000000E+00 -3.62686975E-05 -1.42429935E-05  0.00000000E+00  1.41739844E-05
  2.31828861E-05  0.00000000E+00  0.00000000E+00 -2.92063157E-04 -1.36378857E-04
  3.91116679E-05  4.53446531E-05 -2.66159197E-04 -6.85024929E-04 -1.18550002E-04
 -2.83637289E-05 -9.74626426E-05  0.00000000E+00  2.76819873E-04  7.05842138E-04
  0.00000000E+00 -8.42862306E-04 -4.87088929E-04  0.00000000E+00 -1.26138771E-04
 -2.49100328E-05  0.00000000E+00 -1.83603680E-05  0.00000000E+00  0.00000000E+00
 -2.93835804E-05  1.45591953E-05 -3.30213555E-04  0.00000000E+00  0.00000000E+00
 -8.26288112E-04  1.52985377E-04 -4.02121215E-05  0.00000000E+00  0.00000000E+00
  1.01748776E-04 -1.05412119E-04  0.00000000E+00 -2.17548657E-05 -1.20357967E-04
  0.00000000E+00  0.00000000E+00 -6.68549876E-05 -1.37462340E-04  0.00000000E+00
  1.64434916E-06 -1.51849690E-04  0.00000000E+00  0.00000000E+00  3.06612419E-05
 -4.23453675E-04 -2.33297568E-03  1.17585465E-04 -1.13109703E-04 -2.62900401E-04
  1.18920747E-04 -7.54686703E-06 -2.82519311E-05  0.00000000E+00  6.73137777E-05
  1.66789013E-04  0.00000000E+00  2.29118761E-04  2.11226999E-04  0.00000000E+00
  1.22286109E-04  2.40706146E-05  0.00000000E+00 -3.26745391E-06  0.00000000E+00
  0.00000000E+00 -1.78022675E-05  1.13475178E-06  2.00915815E-07  0.00000000E+00
  0.00000000E+00  7.91139322E-05  9.05769412E-05 -1.00731890E-04  0.00000000E+00
  0.00000000E+00  1.67620108E-04  1.63964965E-04  0.00000000E+00  1.58119199E-05
 -3.91034022E-06  0.00000000E+00  0.00000000E+00 -5.05048825E-06 -1.14669400E-05
  0.00000000E+00 -3.35160711E-05  4.58421925E-05  0.00000000E+00  0.00000000E+00
  8.45594929E-05  8.92013808E-05  3.78718377E-05 -9.75666856E-04 -4.83713329E-04
 -1.00187159E-05 -2.18812413E-05  1.67956740E-05  0.00000000E+00  2.60570508E-06
  2.73367490E-04  0.00000000E+00 -4.03298782E-05  1.33400670E-04  0.00000000E+00
  2.55951069E-05  0.00000000E+00  0.00000000E+00  1.37157262E-05  1.06792379E-05
 -2.59907741E-05  0.00000000E+00  0.00000000E+00  1.14160910E-05  3.31179834E-05
  1.12822539E-04  8.00200081E-05 -2.76344097E-05  7.53171805E-04  6.56372281E-04
  1.02596005E-05  2.04524580E-06  0.00000000E+00 -7.02187327E-05  2.14029405E-05
  0.00000000E+00  3.26270799E-04  8.67249637E-04  0.00000000E+00  9.40694600E-07
  7.79861138E-05  0.00000000E+00 -1.94724913E-06  0.00000000E+00  0.00000000E+00
 -3.96030171E-07 -6.71332693E-06 -3.67462046E-05  0.00000000E+00  0.00000000E+00
 -2.05306790E-05  8.44328574E-05 -2.40821073E-05  0.00000000E+00  0.00000000E+00
 -2.66887227E-04 -1.45879502E-04  0.00000000E+00  9.35092432E-06  5.56046224E-06
  0.00000000E+00  0.00000000E+00  2.00873445E-06 -1.87145267E-05  0.00000000E+00
 -4.02530895E-05 -3.61078991E-05  0.00000000E+00  0.00000000E+00 -7.24880978E-05
  1.89587878E-05  2.37199096E-03  4.33855217E-05  7.97159341E-05 -7.52250901E-05
 -4.65950931E-04  6.26118277E-06  1.60766499E-05  0.00000000E+00 -5.86850772E-05
 -5.49908614E-05  0.00000000E+00  2.28885761E-04 -1.73002139E-04  0.00000000E+00
 -1.89686209E-04 -6.20647116E-05  0.00000000E+00 -8.78814503E-06  0.00000000E+00
  0.00000000E+00  2.23630168E-05  1.94703824E-05  3.85205453E-06  0.00000000E+00
  0.00000000E+00 -1.15521925E-04 -4.43106014E-05 -3.73791670E-06  0.00000000E+00
  0.00000000E+00 -2.22583427E-04 -1.92335129E-04  0.00000000E+00  2.71266087E-06
 -6.22960824E-07  0.00000000E+00  0.00000000E+00  1.35273719E-06 -1.35589311E-05
  0.00000000E+00 -4.51029685E-05  4.07849979E-06  0.00000000E+00  0.00000000E+00
 -6.97909868E-05  1.88767950E-04  2.58820689E-04  1.46560449E-03 -7.85035232E-05
 -1.54101539E-03  3.90878540E-04 -1.44856731E-04  1.05824392E-06  0.00000000E+00
 -2.08707873E-03 -3.87658948E-04  0.00000000E+00  1.03173406E-03  7.44338399E-04
  0.00000000E+00 -1.72470503E-04  5.45728938E-05  0.00000000E+00 -1.23420722E-04
  0.00000000E+00  0.00000000E+00  2.44249033E-04  9.06446031E-05 -4.41655028E-04
  0.00000000E+00  0.00000000E+00  8.97726331E-04 -7.66653975E-05  1.28246982E-05
  0.00000000E+00  0.00000000E+00 -3.37831922E-04 -1.19085968E-04  0.00000000E+00
 -1.61927370E-06  1.51196903E-05  0.00000000E+00  0.00000000E+00  1.91188963E-05
  1.35227492E-05  0.00000000E+00  1.66104199E-04 -7.12914714E-05  0.00000000E+00
  0.00000000E+00 -2.40535456E-04  4.35440575E-05  9.76650124E-01 -9.84887435E-03
  4.35670115E-02  4.49439883E-03 -4.46697090E-04  2.15110885E-03  4.67088388E-04
  0.00000000E+00 -2.38764214E-03 -5.86239636E-04  0.00000000E+00  1.14038275E-03
 -9.07452000E-06  0.00000000E+00  5.09041832E-06 -4.22670533E-05  0.00000000E+00
 -2.32230162E-04  0.00000000E+00  0.00000000E+00  1.03264126E-04  3.01832405E-05
  3.90325546E-04  0.00000000E+00  0.00000000E+00 -8.38768885E-04 -4.06714735E-04
 -1.54744713E-04  0.00000000E+00  0.00000000E+00  2.58177096E-04  1.50114466E-05
  0.00000000E+00  5.23281300E-05  1.72921661E-05  0.00000000E+00  0.00000000E+00
 -2.24043421E-05 -1.28935128E-05  0.00000000E+00  1.38051571E-04  8.36533796E-06
  0.00000000E+00  0.00000000E+00 -1.91898670E-04 -1.36199335E-04  4.78005939E-04
  2.09928196E-03  1.44992208E-04  1.64644975E-05 -4.41581981E-05 -2.52097559E-04
  0.00000000E+00  9.65288087E-05 -1.29225677E-03  0.00000000E+00  2.95081559E-04
 -3.48636571E-04  0.00000000E+00 -3.23528007E-06  0.00000000E+00  0.00000000E+00
  7.15289518E-05  1.56142763E-05 -1.61655529E-04  0.00000000E+00  0.00000000E+00
 -5.38487875E-04 -1.05001876E-05  9.76842100E-01 -9.16526080E-03  4.34219165E-02
  2.98321801E-04 -1.05716587E-03 -1.51511384E-03  1.46117772E-03  0.00000000E+00
  1.50790109E-03 -1.31480787E-03  0.00000000E+00 -6.89932911E-04 -8.76411386E-04
  0.00000000E+00  4.17371309E-05 -2.44064152E-05  0.00000000E+00  3.38735315E-05
  0.00000000E+00  0.00000000E+00 -1.25363709E-04 -6.18846786E-07  7.40729965E-04
  0.00000000E+00  0.00000000E+00 -1.65238539E-04 -2.32751005E-04 -2.80637833E-04
  0.00000000E+00  0.00000000E+00  2.09891823E-04  1.25057477E-04  0.00000000E+00
 -6.14882465E-05  3.26880726E-06  0.00000000E+00  0.00000000E+00  1.61687295E-05
  1.10743349E-05  0.00000000E+00  1.10956415E-05  1.21795704E-04  0.00000000E+00
  0.00000000E+00  2.44281117E-04  8.91395109E-05 -4.54796553E-03 -2.32199553E-04