 Entering Gaussian System, Link 0=g16
 Input=hoono_r4_1p180438.gjf
 Output=hoono_r4_1p180438.log
 Initial command:
 /sw/contrib/gaussian/g16/B01/g16/l1.exe "/scr/Gau-14540.inp" -scrdir="/scr/"
 Entering Link 1 = /sw/contrib/gaussian/g16/B01/g16/l1.exe PID=     14541.
  
 Copyright (c) 1988-2017, Gaussian, Inc.  All Rights Reserved.
  
 This is part of the Gaussian(R) 16 program.  It is based on
 the Gaussian(R) 09 system (copyright 2009, Gaussian, Inc.),
 the Gaussian(R) 03 system (copyright 2003, Gaussian, Inc.),
 the Gaussian(R) 98 system (copyright 1998, Gaussian, Inc.),
 the Gaussian(R) 94 system (copyright 1995, Gaussian, Inc.),
 the Gaussian 92(TM) system (copyright 1992, Gaussian, Inc.),
 the Gaussian 90(TM) system (copyright 1990, Gaussian, Inc.),
 the Gaussian 88(TM) system (copyright 1988, Gaussian, Inc.),
 the Gaussian 86(TM) system (copyright 1986, Carnegie Mellon
 University), and the Gaussian 82(TM) system (copyright 1983,
 Carnegie Mellon University). Gaussian is a federally registered
 trademark of Gaussian, Inc.
  
 This software contains proprietary and confidential information,
 including trade secrets, belonging to Gaussian, Inc.
  
 This software is provided under written license and may be
 used, copied, transmitted, or stored only in accord with that
 written license.
  
 The following legend is applicable only to US Government
 contracts under FAR:
  
                    RESTRICTED RIGHTS LEGEND
  
 Use, reproduction and disclosure by the US Government is
 subject to restrictions as set forth in subparagraphs (a)
 and (c) of the Commercial Computer Software - Restricted
 Rights clause in FAR 52.227-19.
  
 Gaussian, Inc.
 340 Quinnipiac St., Bldg. 40, Wallingford CT 06492
  
  
 ---------------------------------------------------------------
 Warning -- This program may not be used in any manner that
 competes with the business of Gaussian, Inc. or will provide
 assistance to any competitor of Gaussian, Inc.  The licensee
 of this program is prohibited from giving any competitor of
 Gaussian, Inc. access to this program.  By using this program,
 the user acknowledges that Gaussian, Inc. is engaged in the
 business of creating and licensing software in the field of
 computational chemistry and represents and warrants to the
 licensee that it is not a competitor of Gaussian, Inc. and that
 it will not use this program in any manner prohibited above.
 ---------------------------------------------------------------
  

 Cite this work as:
 Gaussian 16, Revision B.01,
 M. J. Frisch, G. W. Trucks, H. B. Schlegel, G. E. Scuseria, 
 M. A. Robb, J. R. Cheeseman, G. Scalmani, V. Barone, 
 G. A. Petersson, H. Nakatsuji, X. Li, M. Caricato, A. V. Marenich, 
 J. Bloino, B. G. Janesko, R. Gomperts, B. Mennucci, H. P. Hratchian, 
 J. V. Ortiz, A. F. Izmaylov, J. L. Sonnenberg, D. Williams-Young, 
 F. Ding, F. Lipparini, F. Egidi, J. Goings, B. Peng, A. Petrone, 
 T. Henderson, D. Ranasinghe, V. G. Zakrzewski, J. Gao, N. Rega, 
 G. Zheng, W. Liang, M. Hada, M. Ehara, K. Toyota, R. Fukuda, 
 J. Hasegawa, M. Ishida, T. Nakajima, Y. Honda, O. Kitao, H. Nakai, 
 T. Vreven, K. Throssell, J. A. Montgomery, Jr., J. E. Peralta, 
 F. Ogliaro, M. J. Bearpark, J. J. Heyd, E. N. Brothers, K. N. Kudin, 
 V. N. Staroverov, T. A. Keith, R. Kobayashi, J. Normand, 
 K. Raghavachari, A. P. Rendell, J. C. Burant, S. S. Iyengar, 
 J. Tomasi, M. Cossi, J. M. Millam, M. Klene, C. Adamo, R. Cammi, 
 J. W. Ochterski, R. L. Martin, K. Morokuma, O. Farkas, 
 J. B. Foresman, and D. J. Fox, Gaussian, Inc., Wallingford CT, 2016.
 
 ******************************************
 Gaussian 16:  ES64L-G16RevB.01 20-Dec-2017
                14-Feb-2022 
 ******************************************
 %nproc=28
 Will use up to   28 processors via shared memory.
 %mem=120GB
 %chk=hoono_r4_1p180438.chk
 -------------------------------------
 #p SP mp2/aug-cc-pvtz density=current
 -------------------------------------
 1/30=1,38=1,172=1/1;
 2/12=2,17=6,18=5,40=1/2;
 3/5=16,6=1,7=10,11=9,25=1,30=1,71=1/1,2,3;
 4//1;
 5/5=2,38=5/2;
 8/6=4,10=1/1;
 9/15=1,16=-3/6;
 10/5=1,13=10/2;
 6/7=2,8=2,9=2,10=2,22=-1/1;
 99/5=1,9=1/99;
 Leave Link    1 at Mon Feb 14 13:09:39 2022, MaxMem= 16106127360 cpu:               2.8 elap:               0.1
 (Enter /sw/contrib/gaussian/g16/B01/g16/l101.exe)
 -----
 title
 -----
 Symbolic Z-matrix:
 Charge =  0 Multiplicity = 1
 H
 O                    1    r1
 O                    2    r2       1    a1
 N                    3    r3       2    a2       1    d1       0
 O                    4    r4       3    a3       2    d2       0
       Variables:
  r1                    0.96898                  
  r2                    1.45492                  
  r3                    1.45878                  
  r4                    1.18044                  
  a1                   97.59495                  
  a2                  102.29752                  
  a3                  109.06955                  
  d1                  180.                       
  d2                  180.                       
 
 ITRead=  0  0  0  0  0
 MicOpt= -1 -1 -1 -1 -1
 NAtoms=      5 NQM=        5 NQMF=       0 NMMI=      0 NMMIF=      0
                NMic=       0 NMicF=      0.
                    Isotopes and Nuclear Properties:
 (Nuclear quadrupole moments (NQMom) in fm**2, nuclear magnetic moments (NMagM)
  in nuclear magnetons)

  Atom         1           2           3           4           5
 IAtWgt=           1          16          16          14          16
 AtmWgt=   1.0078250  15.9949146  15.9949146  14.0030740  15.9949146
 NucSpn=           1           0           0           2           0
 AtZEff=  -0.0000000  -0.0000000  -0.0000000  -0.0000000  -0.0000000
 NQMom=    0.0000000   0.0000000   0.0000000   2.0440000   0.0000000
 NMagM=    2.7928460   0.0000000   0.0000000   0.4037610   0.0000000
 AtZNuc=   1.0000000   8.0000000   8.0000000   7.0000000   8.0000000
 Leave Link  101 at Mon Feb 14 13:09:39 2022, MaxMem= 16106127360 cpu:               2.1 elap:               0.1
 (Enter /sw/contrib/gaussian/g16/B01/g16/l202.exe)
                          Input orientation:                          
 ---------------------------------------------------------------------
 Center     Atomic      Atomic             Coordinates (Angstroms)
 Number     Number       Type             X           Y           Z
 ---------------------------------------------------------------------
      1          1           0        0.000000    0.000000    0.000000
      2          8           0        0.000000    0.000000    0.968976
      3          8           0        1.442156    0.000000    1.161271
      4          7           0        1.561752    0.000000    2.615144
      5          8           0        2.705273    0.000000    2.908048
 ---------------------------------------------------------------------
                    Distance matrix (angstroms):
                    1          2          3          4          5
     1  H    0.000000
     2  O    0.968976   0.000000
     3  O    1.851584   1.454919   0.000000
     4  N    3.045989   2.269127   1.458784   0.000000
     5  O    3.971806   3.328439   2.155620   1.180438   0.000000
 Stoichiometry    HNO3
 Framework group  CS[SG(HNO3)]
 Deg. of freedom     7
 Full point group                 CS      NOp   2
 Largest Abelian subgroup         CS      NOp   2
 Largest concise Abelian subgroup C1      NOp   1
                         Standard orientation:                         
 ---------------------------------------------------------------------
 Center     Atomic      Atomic             Coordinates (Angstroms)
 Number     Number       Type             X           Y           Z
 ---------------------------------------------------------------------
      1          1           0        1.545489    1.693101   -0.000000
      2          8           0        1.453876    0.728466   -0.000000
      3          8           0        0.000000    0.673382   -0.000000
      4          7           0       -0.256518   -0.762672    0.000000
      5          8           0       -1.422609   -0.946149    0.000000
 ---------------------------------------------------------------------
 Rotational constants (GHZ):          54.8891682           4.9883153           4.5727452
 Leave Link  202 at Mon Feb 14 13:09:39 2022, MaxMem= 16106127360 cpu:               0.2 elap:               0.0
 (Enter /sw/contrib/gaussian/g16/B01/g16/l301.exe)
 Standard basis: Aug-CC-pVTZ (5D, 7F)
 Ernie: Thresh=  0.10000D-02 Tol=  0.10000D-05 Strict=F.
 Ernie:  12 primitive shells out of 131 were deleted.
 There are   166 symmetry adapted cartesian basis functions of A'  symmetry.
 There are    79 symmetry adapted cartesian basis functions of A"  symmetry.
 There are   136 symmetry adapted basis functions of A'  symmetry.
 There are    71 symmetry adapted basis functions of A"  symmetry.
   207 basis functions,   315 primitive gaussians,   245 cartesian basis functions
    16 alpha electrons       16 beta electrons
       nuclear repulsion energy       116.5793665730 Hartrees.
 IExCor=    0 DFT=F Ex=HF Corr=None ExCW=0 ScaHFX=  1.000000
 ScaDFX=  1.000000  1.000000  1.000000  1.000000 ScalE2=  1.000000  1.000000
 IRadAn=      5 IRanWt=     -1 IRanGd=            0 ICorTp=0 IEmpDi=  4
 NAtoms=    5 NActive=    5 NUniq=    5 SFac= 1.00D+00 NAtFMM=   60 NAOKFM=F Big=F
 Integral buffers will be    131072 words long.
 Raffenetti 1 integral format.
 Two-electron integral symmetry is turned on.
 Leave Link  301 at Mon Feb 14 13:09:39 2022, MaxMem= 16106127360 cpu:               1.3 elap:               0.1
 (Enter /sw/contrib/gaussian/g16/B01/g16/l302.exe)
 NPDir=0 NMtPBC=     1 NCelOv=     1 NCel=       1 NClECP=     1 NCelD=      1
         NCelK=      1 NCelE2=     1 NClLst=     1 CellRange=     0.0.
 One-electron integrals computed using PRISM.
 One-electron integral symmetry used in STVInt
 NBasis=   207 RedAO= T EigKep=  1.84D-04  NBF=   136    71
 NBsUse=   207 1.00D-06 EigRej= -1.00D+00 NBFU=   136    71
 Leave Link  302 at Mon Feb 14 13:09:39 2022, MaxMem= 16106127360 cpu:               5.8 elap:               0.2
 (Enter /sw/contrib/gaussian/g16/B01/g16/l303.exe)
 DipDrv:  MaxL=1.
 Leave Link  303 at Mon Feb 14 13:09:40 2022, MaxMem= 16106127360 cpu:               0.8 elap:               0.1
 (Enter /sw/contrib/gaussian/g16/B01/g16/l401.exe)
 ExpMin= 2.53D-02 ExpMax= 1.53D+04 ExpMxC= 5.22D+02 IAcc=3 IRadAn=         5 AccDes= 0.00D+00
 Harris functional with IExCor=  205 and IRadAn=       5 diagonalized for initial guess.
 HarFok:  IExCor=  205 AccDes= 0.00D+00 IRadAn=         5 IDoV= 1 UseB2=F ITyADJ=14
 ICtDFT=  3500011 ScaDFX=  1.000000  1.000000  1.000000  1.000000
 FoFCou: FMM=F IPFlag=           0 FMFlag=      100000 FMFlg1=           0
         NFxFlg=           0 DoJE=T BraDBF=F KetDBF=T FulRan=T
         wScrn=  0.000000 ICntrl=       500 IOpCl=  0 I1Cent=   200000004 NGrid=           0
         NMat0=    1 NMatS0=      1 NMatT0=    0 NMatD0=    1 NMtDS0=    0 NMtDT0=    0
 Petite list used in FoFCou.
 Harris En= -279.628726738685    
 JPrj=0 DoOrth=F DoCkMO=F.
 Initial guess orbital symmetries:
       Occupied  (A') (A') (A') (A') (A') (A') (A') (A') (A') (A')
                 (A") (A') (A') (A") (A") (A')
       Virtual   (A") (A') (A') (A') (A') (A') (A") (A') (A') (A')
                 (A") (A') (A") (A') (A') (A") (A') (A") (A') (A')
                 (A') (A') (A') (A') (A') (A") (A') (A") (A') (A')
                 (A") (A') (A") (A') (A') (A") (A') (A") (A') (A')
                 (A") (A') (A") (A') (A") (A') (A') (A') (A") (A")
                 (A') (A') (A') (A') (A") (A') (A") (A') (A") (A')
                 (A') (A') (A") (A') (A') (A") (A') (A") (A') (A')
                 (A") (A') (A') (A") (A") (A') (A') (A") (A') (A')
                 (A') (A") (A') (A") (A') (A") (A') (A") (A') (A')
                 (A') (A") (A') (A") (A') (A") (A") (A') (A') (A')
                 (A") (A') (A") (A') (A') (A') (A') (A") (A") (A')
                 (A") (A') (A') (A') (A") (A') (A') (A') (A") (A')
                 (A") (A') (A') (A") (A") (A') (A") (A') (A") (A')
                 (A') (A') (A') (A") (A") (A') (A") (A') (A') (A')
                 (A') (A") (A") (A') (A') (A") (A') (A') (A') (A')
                 (A") (A') (A') (A") (A') (A") (A') (A") (A') (A")
                 (A') (A") (A') (A") (A') (A") (A") (A") (A') (A')
                 (A") (A') (A") (A') (A") (A') (A") (A") (A') (A')
                 (A') (A') (A') (A') (A') (A') (A') (A') (A') (A')
                 (A')
 The electronic state of the initial guess is 1-A'.
 Leave Link  401 at Mon Feb 14 13:09:40 2022, MaxMem= 16106127360 cpu:               5.9 elap:               0.3
 (Enter /sw/contrib/gaussian/g16/B01/g16/l502.exe)
 Keep R1 ints in memory in symmetry-blocked form, NReq=348887737.
 FoFCou: FMM=F IPFlag=           0 FMFlag=           0 FMFlg1=           0
         NFxFlg=           0 DoJE=F BraDBF=F KetDBF=F FulRan=T
         wScrn=  0.000000 ICntrl=       600 IOpCl=  0 I1Cent=           0 NGrid=           0
         NMat0=    1 NMatS0=  21528 NMatT0=    0 NMatD0=    1 NMtDS0=    0 NMtDT0=    0
 Petite list used in FoFCou.
 Closed shell SCF:
 Using DIIS extrapolation, IDIIS=  1040.
 NGot= 16106127360 LenX= 15988850015 LenY= 15988789549
 Requested convergence on RMS density matrix=1.00D-08 within 128 cycles.
 Requested convergence on MAX density matrix=1.00D-06.
 Requested convergence on             energy=1.00D-06.
 No special actions if energy rises.

 Cycle   1  Pass 1  IDiag  1:
 E= -279.366657250391    
 DIIS: error= 2.67D-02 at cycle   1 NSaved=   1.
 NSaved= 1 IEnMin= 1 EnMin= -279.366657250391     IErMin= 1 ErrMin= 2.67D-02
 ErrMax= 2.67D-02  0.00D+00 EMaxC= 1.00D-01 BMatC= 4.40D-01 BMatP= 4.40D-01
 IDIUse=3 WtCom= 7.33D-01 WtEn= 2.67D-01
 Coeff-Com:  0.100D+01
 Coeff-En:   0.100D+01
 Coeff:      0.100D+01
 Gap=     0.510 Goal=   None    Shift=    0.000
 GapD=    0.510 DampG=2.000 DampE=0.500 DampFc=1.0000 IDamp=-1.
 RMSDP=1.64D-03 MaxDP=9.97D-02              OVMax= 1.17D-01

 Cycle   2  Pass 1  IDiag  1:
 E= -279.447658498065     Delta-E=       -0.081001247674 Rises=F Damp=F
 DIIS: error= 1.82D-02 at cycle   2 NSaved=   2.
 NSaved= 2 IEnMin= 2 EnMin= -279.447658498065     IErMin= 2 ErrMin= 1.82D-02
 ErrMax= 1.82D-02  0.00D+00 EMaxC= 1.00D-01 BMatC= 7.59D-02 BMatP= 4.40D-01
 IDIUse=3 WtCom= 8.18D-01 WtEn= 1.82D-01
 Coeff-Com:  0.203D+00 0.797D+00
 Coeff-En:   0.253D-01 0.975D+00
 Coeff:      0.170D+00 0.830D+00
 Gap=     0.533 Goal=   None    Shift=    0.000
 RMSDP=9.16D-04 MaxDP=3.79D-02 DE=-8.10D-02 OVMax= 7.03D-02

 Cycle   3  Pass 1  IDiag  1:
 E= -279.479078380963     Delta-E=       -0.031419882898 Rises=F Damp=F
 DIIS: error= 1.05D-02 at cycle   3 NSaved=   3.
 NSaved= 3 IEnMin= 3 EnMin= -279.479078380963     IErMin= 3 ErrMin= 1.05D-02
 ErrMax= 1.05D-02  0.00D+00 EMaxC= 1.00D-01 BMatC= 2.95D-02 BMatP= 7.59D-02
 IDIUse=3 WtCom= 8.95D-01 WtEn= 1.05D-01
 Coeff-Com: -0.333D-01 0.374D+00 0.659D+00
 Coeff-En:   0.000D+00 0.236D+00 0.764D+00
 Coeff:     -0.298D-01 0.360D+00 0.670D+00
 Gap=     0.512 Goal=   None    Shift=    0.000
 RMSDP=3.83D-04 MaxDP=1.59D-02 DE=-3.14D-02 OVMax= 3.97D-02

 Cycle   4  Pass 1  IDiag  1:
 E= -279.498770314380     Delta-E=       -0.019691933416 Rises=F Damp=F
 DIIS: error= 1.31D-03 at cycle   4 NSaved=   4.
 NSaved= 4 IEnMin= 4 EnMin= -279.498770314380     IErMin= 4 ErrMin= 1.31D-03
 ErrMax= 1.31D-03  0.00D+00 EMaxC= 1.00D-01 BMatC= 5.09D-04 BMatP= 2.95D-02
 IDIUse=3 WtCom= 9.87D-01 WtEn= 1.31D-02
 Coeff-Com: -0.117D-01 0.551D-01 0.157D+00 0.799D+00
 Coeff-En:   0.000D+00 0.000D+00 0.000D+00 0.100D+01
 Coeff:     -0.116D-01 0.544D-01 0.155D+00 0.802D+00
 Gap=     0.504 Goal=   None    Shift=    0.000
 RMSDP=9.18D-05 MaxDP=2.79D-03 DE=-1.97D-02 OVMax= 1.14D-02

 Cycle   5  Pass 1  IDiag  1:
 E= -279.499474536388     Delta-E=       -0.000704222009 Rises=F Damp=F
 DIIS: error= 7.48D-04 at cycle   5 NSaved=   5.
 NSaved= 5 IEnMin= 5 EnMin= -279.499474536388     IErMin= 5 ErrMin= 7.48D-04
 ErrMax= 7.48D-04  0.00D+00 EMaxC= 1.00D-01 BMatC= 8.98D-05 BMatP= 5.09D-04
 IDIUse=3 WtCom= 9.93D-01 WtEn= 7.48D-03
 Coeff-Com:  0.625D-02-0.722D-01-0.119D+00 0.170D-01 0.117D+01
 Coeff-En:   0.000D+00 0.000D+00 0.000D+00 0.000D+00 0.100D+01
 Coeff:      0.621D-02-0.716D-01-0.118D+00 0.168D-01 0.117D+01
 Gap=     0.504 Goal=   None    Shift=    0.000
 RMSDP=7.80D-05 MaxDP=2.16D-03 DE=-7.04D-04 OVMax= 1.14D-02

 Cycle   6  Pass 1  IDiag  1:
 E= -279.499803465642     Delta-E=       -0.000328929253 Rises=F Damp=F
 DIIS: error= 2.94D-04 at cycle   6 NSaved=   6.
 NSaved= 6 IEnMin= 6 EnMin= -279.499803465642     IErMin= 6 ErrMin= 2.94D-04
 ErrMax= 2.94D-04  0.00D+00 EMaxC= 1.00D-01 BMatC= 1.73D-05 BMatP= 8.98D-05
 IDIUse=3 WtCom= 9.97D-01 WtEn= 2.94D-03
 Coeff-Com:  0.413D-03 0.389D-02 0.871D-02-0.132D+00-0.262D+00 0.138D+01
 Coeff-En:   0.000D+00 0.000D+00 0.000D+00 0.000D+00 0.000D+00 0.100D+01
 Coeff:      0.411D-03 0.387D-02 0.869D-02-0.132D+00-0.262D+00 0.138D+01
 Gap=     0.504 Goal=   None    Shift=    0.000
 RMSDP=4.67D-05 MaxDP=1.29D-03 DE=-3.29D-04 OVMax= 5.79D-03

 Cycle   7  Pass 1  IDiag  1:
 E= -279.499879857134     Delta-E=       -0.000076391492 Rises=F Damp=F
 DIIS: error= 1.21D-04 at cycle   7 NSaved=   7.
 NSaved= 7 IEnMin= 7 EnMin= -279.499879857134     IErMin= 7 ErrMin= 1.21D-04
 ErrMax= 1.21D-04  0.00D+00 EMaxC= 1.00D-01 BMatC= 4.20D-06 BMatP= 1.73D-05
 IDIUse=3 WtCom= 9.99D-01 WtEn= 1.21D-03
 Coeff-Com: -0.967D-03 0.132D-01 0.263D-01-0.187D-01-0.273D+00 0.336D+00
 Coeff-Com:  0.917D+00
 Coeff-En:   0.000D+00 0.000D+00 0.000D+00 0.000D+00 0.000D+00 0.000D+00
 Coeff-En:   0.100D+01
 Coeff:     -0.966D-03 0.132D-01 0.263D-01-0.187D-01-0.273D+00 0.336D+00
 Coeff:      0.917D+00
 Gap=     0.504 Goal=   None    Shift=    0.000
 RMSDP=1.33D-05 MaxDP=3.82D-04 DE=-7.64D-05 OVMax= 1.58D-03

 Cycle   8  Pass 1  IDiag  1:
 E= -279.499888599558     Delta-E=       -0.000008742424 Rises=F Damp=F
 DIIS: error= 6.10D-05 at cycle   8 NSaved=   8.
 NSaved= 8 IEnMin= 8 EnMin= -279.499888599558     IErMin= 8 ErrMin= 6.10D-05
 ErrMax= 6.10D-05  0.00D+00 EMaxC= 1.00D-01 BMatC= 6.51D-07 BMatP= 4.20D-06
 IDIUse=1 WtCom= 1.00D+00 WtEn= 0.00D+00
 Coeff-Com: -0.446D-03 0.325D-02 0.737D-02 0.278D-01-0.375D-01-0.209D+00
 Coeff-Com:  0.227D+00 0.981D+00
 Coeff:     -0.446D-03 0.325D-02 0.737D-02 0.278D-01-0.375D-01-0.209D+00
 Coeff:      0.227D+00 0.981D+00
 Gap=     0.504 Goal=   None    Shift=    0.000
 RMSDP=6.75D-06 MaxDP=2.03D-04 DE=-8.74D-06 OVMax= 7.25D-04

 Cycle   9  Pass 1  IDiag  1:
 E= -279.499890393040     Delta-E=       -0.000001793483 Rises=F Damp=F
 DIIS: error= 1.73D-05 at cycle   9 NSaved=   9.
 NSaved= 9 IEnMin= 9 EnMin= -279.499890393040     IErMin= 9 ErrMin= 1.73D-05
 ErrMax= 1.73D-05  0.00D+00 EMaxC= 1.00D-01 BMatC= 7.95D-08 BMatP= 6.51D-07
 IDIUse=1 WtCom= 1.00D+00 WtEn= 0.00D+00
 Coeff-Com:  0.135D-03-0.180D-02-0.324D-02-0.269D-02 0.356D-01 0.342D-02
 Coeff-Com: -0.191D+00-0.912D-01 0.125D+01
 Coeff:      0.135D-03-0.180D-02-0.324D-02-0.269D-02 0.356D-01 0.342D-02
 Coeff:     -0.191D+00-0.912D-01 0.125D+01
 Gap=     0.504 Goal=   None    Shift=    0.000
 RMSDP=2.08D-06 MaxDP=7.28D-05 DE=-1.79D-06 OVMax= 1.94D-04

 Cycle  10  Pass 1  IDiag  1:
 E= -279.499890578052     Delta-E=       -0.000000185012 Rises=F Damp=F
 DIIS: error= 4.34D-06 at cycle  10 NSaved=  10.
 NSaved=10 IEnMin=10 EnMin= -279.499890578052     IErMin=10 ErrMin= 4.34D-06
 ErrMax= 4.34D-06  0.00D+00 EMaxC= 1.00D-01 BMatC= 6.36D-09 BMatP= 7.95D-08
 IDIUse=1 WtCom= 1.00D+00 WtEn= 0.00D+00
 Coeff-Com:  0.274D-04-0.188D-03-0.215D-03-0.275D-02 0.534D-03 0.205D-01
 Coeff-Com: -0.122D-01-0.681D-01-0.112D+00 0.117D+01
 Coeff:      0.274D-04-0.188D-03-0.215D-03-0.275D-02 0.534D-03 0.205D-01
 Coeff:     -0.122D-01-0.681D-01-0.112D+00 0.117D+01
 Gap=     0.504 Goal=   None    Shift=    0.000
 RMSDP=5.46D-07 MaxDP=2.30D-05 DE=-1.85D-07 OVMax= 4.84D-05

 Cycle  11  Pass 1  IDiag  1:
 E= -279.499890593076     Delta-E=       -0.000000015023 Rises=F Damp=F
 DIIS: error= 2.24D-06 at cycle  11 NSaved=  11.
 NSaved=11 IEnMin=11 EnMin= -279.499890593076     IErMin=11 ErrMin= 2.24D-06
 ErrMax= 2.24D-06  0.00D+00 EMaxC= 1.00D-01 BMatC= 7.83D-10 BMatP= 6.36D-09
 IDIUse=1 WtCom= 1.00D+00 WtEn= 0.00D+00
 Coeff-Com: -0.231D-04 0.256D-03 0.516D-03 0.611D-03-0.446D-02-0.425D-02
 Coeff-Com:  0.255D-01 0.293D-01-0.144D+00-0.179D+00 0.128D+01
 Coeff:     -0.231D-04 0.256D-03 0.516D-03 0.611D-03-0.446D-02-0.425D-02
 Coeff:      0.255D-01 0.293D-01-0.144D+00-0.179D+00 0.128D+01
 Gap=     0.504 Goal=   None    Shift=    0.000
 RMSDP=1.98D-07 MaxDP=7.26D-06 DE=-1.50D-08 OVMax= 1.90D-05

 Cycle  12  Pass 1  IDiag  1:
 E= -279.499890595296     Delta-E=       -0.000000002220 Rises=F Damp=F
 DIIS: error= 6.32D-07 at cycle  12 NSaved=  12.
 NSaved=12 IEnMin=12 EnMin= -279.499890595296     IErMin=12 ErrMin= 6.32D-07
 ErrMax= 6.32D-07  0.00D+00 EMaxC= 1.00D-01 BMatC= 8.52D-11 BMatP= 7.83D-10
 IDIUse=1 WtCom= 1.00D+00 WtEn= 0.00D+00
 Coeff-Com:  0.155D-05-0.331D-04-0.711D-04 0.201D-03 0.119D-02-0.254D-02
 Coeff-Com: -0.448D-02 0.611D-02 0.439D-01-0.127D+00-0.249D+00 0.133D+01
 Coeff:      0.155D-05-0.331D-04-0.711D-04 0.201D-03 0.119D-02-0.254D-02
 Coeff:     -0.448D-02 0.611D-02 0.439D-01-0.127D+00-0.249D+00 0.133D+01
 Gap=     0.504 Goal=   None    Shift=    0.000
 RMSDP=7.92D-08 MaxDP=3.10D-06 DE=-2.22D-09 OVMax= 7.31D-06

 Cycle  13  Pass 1  IDiag  1:
 E= -279.499890595571     Delta-E=       -0.000000000275 Rises=F Damp=F
 DIIS: error= 1.87D-07 at cycle  13 NSaved=  13.
 NSaved=13 IEnMin=13 EnMin= -279.499890595571     IErMin=13 ErrMin= 1.87D-07
 ErrMax= 1.87D-07  0.00D+00 EMaxC= 1.00D-01 BMatC= 4.76D-12 BMatP= 8.52D-11
 IDIUse=1 WtCom= 1.00D+00 WtEn= 0.00D+00
 Coeff-Com:  0.136D-05-0.145D-04-0.235D-04-0.986D-04 0.124D-03 0.842D-03
 Coeff-Com: -0.114D-02-0.320D-02 0.814D-03 0.433D-01-0.465D-01-0.309D+00
 Coeff-Com:  0.131D+01
 Coeff:      0.136D-05-0.145D-04-0.235D-04-0.986D-04 0.124D-03 0.842D-03
 Coeff:     -0.114D-02-0.320D-02 0.814D-03 0.433D-01-0.465D-01-0.309D+00
 Coeff:      0.131D+01
 Gap=     0.504 Goal=   None    Shift=    0.000
 RMSDP=2.07D-08 MaxDP=6.13D-07 DE=-2.75D-10 OVMax= 1.66D-06

 Cycle  14  Pass 1  IDiag  1:
 E= -279.499890595585     Delta-E=       -0.000000000014 Rises=F Damp=F
 DIIS: error= 2.63D-08 at cycle  14 NSaved=  14.
 NSaved=14 IEnMin=14 EnMin= -279.499890595585     IErMin=14 ErrMin= 2.63D-08
 ErrMax= 2.63D-08  0.00D+00 EMaxC= 1.00D-01 BMatC= 2.32D-13 BMatP= 4.76D-12
 IDIUse=1 WtCom= 1.00D+00 WtEn= 0.00D+00
 Coeff-Com: -0.199D-06 0.322D-05 0.576D-05 0.458D-05-0.859D-04 0.504D-04
 Coeff-Com:  0.318D-03 0.193D-03-0.252D-02 0.186D-02 0.163D-01-0.262D-01
 Coeff-Com: -0.195D+00 0.120D+01
 Coeff:     -0.199D-06 0.322D-05 0.576D-05 0.458D-05-0.859D-04 0.504D-04
 Coeff:      0.318D-03 0.193D-03-0.252D-02 0.186D-02 0.163D-01-0.262D-01
 Coeff:     -0.195D+00 0.120D+01
 Gap=     0.504 Goal=   None    Shift=    0.000
 RMSDP=4.06D-09 MaxDP=9.85D-08 DE=-1.41D-11 OVMax= 3.68D-07

 SCF Done:  E(RHF) =  -279.499890596     A.U. after   14 cycles
            NFock= 14  Conv=0.41D-08     -V/T= 2.0025
 KE= 2.787988838443D+02 PE=-8.944485045087D+02 EE= 2.195703634958D+02
 Leave Link  502 at Mon Feb 14 13:09:43 2022, MaxMem= 16106127360 cpu:              56.4 elap:               3.6
 (Enter /sw/contrib/gaussian/g16/B01/g16/l801.exe)
 ExpMin= 2.53D-02 ExpMax= 1.53D+04 ExpMxC= 5.22D+02 IAcc=3 IRadAn=         5 AccDes= 0.00D+00
 HarFok:  IExCor=  205 AccDes= 0.00D+00 IRadAn=         5 IDoV=-2 UseB2=F ITyADJ=14
 ICtDFT= 12500011 ScaDFX=  1.000000  1.000000  1.000000  1.000000
 Largest valence mixing into a core orbital is  2.09D-04
 Largest core mixing into a valence orbital is  3.66D-05
 Range of M.O.s used for correlation:     5   207
 NBasis=   207 NAE=    16 NBE=    16 NFC=     4 NFV=     0
 NROrb=    203 NOA=    12 NOB=    12 NVA=   191 NVB=   191

 **** Warning!!: The largest alpha MO coefficient is  0.17671223D+02

 Leave Link  801 at Mon Feb 14 13:09:44 2022, MaxMem= 16106127360 cpu:               4.1 elap:               0.2
 (Enter /sw/contrib/gaussian/g16/B01/g16/l906.exe)
 Frozen-core derivative calculation, NFC=   4 NFV=   0.
 FulOut=F Deriv=T AODrv=F NAtomX=     5
   MMem=          76  MDisk=          12 MDiskD=          12
  W3Min=      811440 MinDsk=     1524655 NBas6D=         245
 NBas2D=       30762    NTT=       30135    LW2=     3500000
    MDV= 16105579927 MDiskM=      328644 NBas2p=       30466
 Fully in-core method, ICMem=   960157634.
 IMap=   1   2   3   4   5   6   7   8   9  10  11  12  13  14  15  16
 JobTyp=1 Pass  1 fully in-core, NPsUse= 28.
 Compute canonical integrals.
 FoFCou: FMM=F IPFlag=           0 FMFlag=           0 FMFlg1=           0
         NFxFlg=           0 DoJE=F BraDBF=F KetDBF=F FulRan=T
         wScrn=  0.000000 ICntrl=       600 IOpCl=  1 I1Cent=           0 NGrid=           0
         NMat0=    1 NMatS0=  30762 NMatT0=    0 NMatD0=    1 NMtDS0=    0 NMtDT0=    0
 Symmetry not used in FoFCou.
 Spin components of T(2) and E(2):
     alpha-alpha T2 =       0.3422833325D-01 E2=     -0.1226175496D+00
     alpha-beta  T2 =       0.1879820508D+00 E2=     -0.7014828584D+00
     beta-beta   T2 =       0.3422833325D-01 E2=     -0.1226175496D+00
 The integrals were generated   1 times.
 ANorm=    0.1120909772D+01
 E2 =    -0.9467179576D+00 EUMP2 =    -0.28044660855319D+03
 Leave Link  906 at Mon Feb 14 13:09:52 2022, MaxMem= 16106127360 cpu:             245.1 elap:               8.8
 (Enter /sw/contrib/gaussian/g16/B01/g16/l1002.exe)
 Minotr:  Closed shell wavefunction.
          Computing MP2/KS-MP2 derivatives.
          Using Z-Vector for PSCF gradient.
          Skipping F1 and S1 gradient terms here.
          Frozen-core window.
          Direct CPHF calculation.
          Differentiating once with respect to electric field.
                with respect to dipole field.
          Electric field/nuclear overlap derivatives assumed to be zero.
          Using symmetry in CPHF.
          Requested convergence is 1.0D-10 RMS, and 1.0D-09 maximum.
          NewPWx=F KeepS1=T KeepF1=T KeepIn=T MapXYZ=F SortEE=F KeepMc=T.
 Keep R1 ints in memory in symmetry-blocked form, NReq=348888868.
 FoFCou: FMM=F IPFlag=           0 FMFlag=           0 FMFlg1=           0
         NFxFlg=           0 DoJE=F BraDBF=F KetDBF=F FulRan=T
         wScrn=  0.000000 ICntrl=       600 IOpCl=  0 I1Cent=           0 NGrid=           0
         NMat0=    1 NMatS0=  21528 NMatT0=    0 NMatD0=    1 NMtDS0=    0 NMtDT0=    0
 Petite list used in FoFCou.
          MDV=   16106127360 using IRadAn=       5.
          Solving linear equations separately, MaxMat=       0.
          There are     1 degrees of freedom in the 1st order CPHF.  IDoFFX=0 NUNeed=     1.
 LinEq1:  Iter=  0 NonCon=     1 RMS=6.01D-03 Max=1.36D-01 NDo=     1
 AX will form     1 AO Fock derivatives at one time.
 LinEq1:  Iter=  1 NonCon=     1 RMS=1.94D-03 Max=3.95D-02 NDo=     1
 LinEq1:  Iter=  2 NonCon=     1 RMS=8.88D-04 Max=1.44D-02 NDo=     1
 LinEq1:  Iter=  3 NonCon=     1 RMS=3.99D-04 Max=8.28D-03 NDo=     1
 LinEq1:  Iter=  4 NonCon=     1 RMS=1.23D-04 Max=1.97D-03 NDo=     1
 LinEq1:  Iter=  5 NonCon=     1 RMS=4.87D-05 Max=7.77D-04 NDo=     1
 LinEq1:  Iter=  6 NonCon=     1 RMS=2.16D-05 Max=2.43D-04 NDo=     1
 LinEq1:  Iter=  7 NonCon=     1 RMS=8.70D-06 Max=1.64D-04 NDo=     1
 LinEq1:  Iter=  8 NonCon=     1 RMS=3.70D-06 Max=3.58D-05 NDo=     1
 LinEq1:  Iter=  9 NonCon=     1 RMS=1.00D-06 Max=1.35D-05 NDo=     1
 LinEq1:  Iter= 10 NonCon=     1 RMS=1.97D-07 Max=2.13D-06 NDo=     1
 LinEq1:  Iter= 11 NonCon=     1 RMS=3.63D-08 Max=3.74D-07 NDo=     1
 LinEq1:  Iter= 12 NonCon=     1 RMS=8.79D-09 Max=1.34D-07 NDo=     1
 LinEq1:  Iter= 13 NonCon=     1 RMS=1.60D-09 Max=2.71D-08 NDo=     1
 LinEq1:  Iter= 14 NonCon=     1 RMS=2.88D-10 Max=4.02D-09 NDo=     1
 LinEq1:  Iter= 15 NonCon=     0 RMS=5.09D-11 Max=5.59D-10 NDo=     1
 Linear equations converged to 1.000D-10 1.000D-09 after    15 iterations.
 End of Minotr F.D. properties file   721 does not exist.
 End of Minotr F.D. properties file   722 does not exist.
 End of Minotr F.D. properties file   788 does not exist.
 Leave Link 1002 at Mon Feb 14 13:09:56 2022, MaxMem= 16106127360 cpu:              52.7 elap:               3.9
 (Enter /sw/contrib/gaussian/g16/B01/g16/l601.exe)
 Copying SCF densities to generalized density rwf, IOpCl= 0 IROHF=0.

 **********************************************************************

            Population analysis using the MP2 Density.

 **********************************************************************

 Orbital symmetries:
       Occupied  (A') (A') (A') (A') (A') (A') (A') (A') (A') (A')
                 (A") (A') (A") (A') (A") (A')
       Virtual   (A') (A") (A') (A') (A') (A") (A') (A') (A") (A')
                 (A") (A') (A') (A') (A") (A') (A') (A") (A') (A')
                 (A') (A') (A') (A') (A") (A') (A') (A") (A') (A')
                 (A") (A') (A") (A') (A') (A") (A') (A') (A") (A')
                 (A") (A') (A") (A') (A') (A") (A') (A') (A") (A')
                 (A") (A') (A') (A') (A") (A') (A") (A') (A") (A')
                 (A') (A') (A") (A') (A') (A") (A') (A") (A') (A')
                 (A") (A') (A') (A") (A") (A') (A') (A") (A') (A')
                 (A') (A") (A') (A") (A') (A") (A') (A") (A') (A')
                 (A") (A') (A') (A") (A') (A") (A') (A") (A') (A')
                 (A") (A') (A") (A') (A') (A") (A') (A') (A") (A')
                 (A") (A') (A') (A') (A") (A') (A') (A') (A") (A')
                 (A") (A') (A") (A') (A') (A") (A") (A') (A") (A')
                 (A') (A') (A') (A") (A") (A") (A') (A') (A') (A')
                 (A") (A') (A") (A') (A') (A") (A') (A') (A') (A')
                 (A") (A') (A') (A") (A') (A") (A') (A") (A') (A")
                 (A') (A") (A') (A') (A") (A") (A") (A') (A") (A')
                 (A") (A') (A") (A') (A") (A') (A") (A') (A") (A')
                 (A') (A') (A') (A') (A') (A') (A') (A') (A') (A')
                 (A')
 The electronic state is 1-A'.
 Alpha  occ. eigenvalues --  -20.69313 -20.68390 -20.66121 -15.81424  -1.61636
 Alpha  occ. eigenvalues --   -1.49549  -1.25538  -0.94941  -0.77173  -0.75665
 Alpha  occ. eigenvalues --   -0.70997  -0.67815  -0.61841  -0.59004  -0.48601
 Alpha  occ. eigenvalues --   -0.47438
 Alpha virt. eigenvalues --    0.02937   0.06869   0.08610   0.10172   0.13382
 Alpha virt. eigenvalues --    0.13414   0.14388   0.15429   0.17809   0.19428
 Alpha virt. eigenvalues --    0.19946   0.20635   0.22048   0.23463   0.23732
 Alpha virt. eigenvalues --    0.26594   0.29245   0.30350   0.31001   0.34353
 Alpha virt. eigenvalues --    0.34940   0.38684   0.42154   0.43151   0.52752
 Alpha virt. eigenvalues --    0.52768   0.55785   0.58142   0.62061   0.63876
 Alpha virt. eigenvalues --    0.67745   0.68384   0.70631   0.71091   0.72378
 Alpha virt. eigenvalues --    0.72883   0.74469   0.79103   0.79144   0.81067
 Alpha virt. eigenvalues --    0.81182   0.82808   0.86741   0.90738   0.92105
 Alpha virt. eigenvalues --    0.92541   0.95608   0.97542   0.98380   1.01599
 Alpha virt. eigenvalues --    1.05137   1.05416   1.08052   1.11633   1.14026
 Alpha virt. eigenvalues --    1.18891   1.21939   1.23123   1.33811   1.34982
 Alpha virt. eigenvalues --    1.38467   1.45293   1.48729   1.50778   1.53773
 Alpha virt. eigenvalues --    1.56692   1.57994   1.61252   1.66182   1.66923
 Alpha virt. eigenvalues --    1.70359   1.79265   1.83209   1.83432   1.87569
 Alpha virt. eigenvalues --    1.91000   1.95871   1.98965   2.00624   2.07734
 Alpha virt. eigenvalues --    2.12067   2.13105   2.14887   2.22392   2.26349
 Alpha virt. eigenvalues --    2.26409   2.28864   2.31316   2.34096   2.38524
 Alpha virt. eigenvalues --    2.42223   2.42648   2.45396   2.46153   2.47520
 Alpha virt. eigenvalues --    2.49933   2.58810   2.59472   2.61893   2.62081
 Alpha virt. eigenvalues --    2.63329   2.66466   2.75368   2.82042   2.85100
 Alpha virt. eigenvalues --    2.87967   2.89186   2.92064   2.95563   3.02290
 Alpha virt. eigenvalues --    3.06960   3.11849   3.20374   3.22399   3.31475
 Alpha virt. eigenvalues --    3.34025   3.51275   3.64248   3.83691   3.84126
 Alpha virt. eigenvalues --    4.14747   4.16147   4.18216   4.23455   4.35047
 Alpha virt. eigenvalues --    4.39168   4.46058   4.51719   4.64997   4.70873
 Alpha virt. eigenvalues --    4.79976   4.82277   4.82672   4.89635   5.02468
 Alpha virt. eigenvalues --    5.07661   5.09953   5.14852   5.17568   5.23864
 Alpha virt. eigenvalues --    5.27122   5.30831   5.32790   5.34766   5.60388
 Alpha virt. eigenvalues --    5.65772   5.76047   5.82491   5.96138   6.16599
 Alpha virt. eigenvalues --    6.30684   6.33730   6.39297   6.49361   6.50526
 Alpha virt. eigenvalues --    6.61230   6.66665   6.69555   6.75611   6.76161
 Alpha virt. eigenvalues --    6.82668   6.89456   7.01025   7.05339   7.05520
 Alpha virt. eigenvalues --    7.08859   7.11964   7.14706   7.18012   7.21790
 Alpha virt. eigenvalues --    7.23942   7.30173   7.30444   7.34127   7.39236
 Alpha virt. eigenvalues --    7.42972   7.48316   7.60061   7.60581   7.61676
 Alpha virt. eigenvalues --    7.66315   7.78067   7.87093   8.08877   8.31077
 Alpha virt. eigenvalues --    8.40797   8.54195  13.37049  14.31376  15.15696
 Alpha virt. eigenvalues --   15.86627
          Condensed to atoms (all electrons):
               1          2          3          4          5
     1  H    0.589286   0.128382   0.020069   0.012321  -0.000648
     2  O    0.128382   8.320771  -0.173405  -0.090389   0.015456
     3  O    0.020069  -0.173405   8.461258  -0.126079  -0.036798
     4  N    0.012321  -0.090389  -0.126079   6.967994  -0.054482
     5  O   -0.000648   0.015456  -0.036798  -0.054482   8.271840
 Mulliken charges:
               1
     1  H    0.250591
     2  O   -0.200815
     3  O   -0.145045
     4  N    0.290636
     5  O   -0.195367
 Sum of Mulliken charges =  -0.00000
 Mulliken charges with hydrogens summed into heavy atoms:
               1
     2  O    0.049776
     3  O   -0.145045
     4  N    0.290636
     5  O   -0.195367
 Electronic spatial extent (au):  <R**2>=            253.8034
 Charge=             -0.0000 electrons
 Dipole moment (field-independent basis, Debye):
    X=              0.5441    Y=              1.4032    Z=             -0.0000  Tot=              1.5050
 Quadrupole moment (field-independent basis, Debye-Ang):
   XX=            -22.5188   YY=            -18.6157   ZZ=            -22.0265
   XY=              3.2239   XZ=              0.0000   YZ=             -0.0000
 Traceless Quadrupole moment (field-independent basis, Debye-Ang):
   XX=             -1.4651   YY=              2.4379   ZZ=             -0.9728
   XY=              3.2239   XZ=              0.0000   YZ=             -0.0000
 Octapole moment (field-independent basis, Debye-Ang**2):
  XXX=              2.9340  YYY=             11.5373  ZZZ=              0.0000  XYY=              7.9978
  XXY=              6.6110  XXZ=             -0.0000  XZZ=             -1.5469  YZZ=             -0.8222
  YYZ=             -0.0000  XYZ=             -0.0000
 Hexadecapole moment (field-independent basis, Debye-Ang**3):
 XXXX=           -158.8442 YYYY=            -90.3922 ZZZZ=            -18.2566 XXXY=            -37.0424
 XXXZ=              0.0000 YYYX=            -31.0279 YYYZ=              0.0000 ZZZX=              0.0000
 ZZZY=              0.0000 XXYY=            -34.1640 XXZZ=            -30.9285 YYZZ=            -20.8141
 XXYZ=             -0.0000 YYXZ=             -0.0000 ZZXY=            -15.1770
 N-N= 1.165793665730D+02 E-N=-8.952443839906D+02  KE= 2.801573099238D+02
 Symmetry A'   KE= 2.661898879607D+02
 Symmetry A"   KE= 1.396742196309D+01
 No NMR shielding tensors so no spin-rotation constants.
 Leave Link  601 at Mon Feb 14 13:09:56 2022, MaxMem= 16106127360 cpu:               4.3 elap:               0.2
 (Enter /sw/contrib/gaussian/g16/B01/g16/l9999.exe)
 1\1\GINC-N2228\SP\RMP2-FC\Aug-CC-pVTZ\H1N1O3\CGAVINH\14-Feb-2022\0\\#p
  SP mp2/aug-cc-pvtz density=current\\title\\0,1\H\O,1,0.96897556\O,2,1
 .45491931,1,97.59494903\N,3,1.45878406,2,102.29752444,1,180.,0\O,4,1.1
 804380949,3,109.06955123,2,180.,0\\Version=ES64L-G16RevB.01\State=1-A'
 \HF=-279.4998906\MP2=-280.4466086\RMSD=4.057e-09\Dipole=-0.1608985,0.,
 -0.5698325\Quadrupole=-1.5145543,-0.7232501,2.2378044,0.,2.0808887,0.\
 PG=CS [SG(H1N1O3)]\\@


 ADAM SMITH SAID, "THE REAL PRICE OF ANYTHING IS THE TOIL AND TROUBLE
 OF ACQUIRING IT."  BUT IN ALL UNDERTAKINGS WITH NATURE WE SHOULD FIRST
 READ CAREFULLY THE SMALL PRINT IN THE CONTRACT. THIS MIGHT DISCLOSE
 THAT THE REAL PRICE IS TO BE PAID BY THOSE WHO INHERIT THE DEPLETION
 AND DESPOILATION THAT FOLLOWS.
                               -- E. R. HARRISON IN "COSMOLOGY" (1980)
 Job cpu time:       0 days  0 hours  6 minutes 22.8 seconds.
 Elapsed time:       0 days  0 hours  0 minutes 17.6 seconds.
 File lengths (MBytes):  RWF=     22 Int=      0 D2E=      0 Chk=      8 Scr=      1
 Normal termination of Gaussian 16 at Mon Feb 14 13:09:57 2022.
