title                                                                   
SP        RMP2-FC                                                     Aug-CC-pVTZ         
Number of atoms                            I                5
Info1-9                                    I   N=           9
          33          24           0           0           0         110
           1           2           1
Full Title                                 C   N=           1
title       
Route                                      C   N=           4
#p SP mp2/aug-cc-pvtz density=current           
Charge                                     I                0
Multiplicity                               I                1
Number of electrons                        I               32
Number of alpha electrons                  I               16
Number of beta electrons                   I               16
Number of basis functions                  I              207
Number of independent functions            I              207
Number of point charges in /Mol/           I                0
Number of translation vectors              I                0
Atomic numbers                             I   N=           5
           1           8           8           7           8
Nuclear charges                            R   N=           5
  1.00000000E+00  8.00000000E+00  8.00000000E+00  7.00000000E+00  8.00000000E+00
Current cartesian coordinates              R   N=          15
  2.93060642E+00  3.19645144E+00 -2.44062008E-31  2.74793546E+00  1.37448745E+00
 -2.57132480E-31  2.13910255E-16  1.28478955E+00 -1.27744030E-31 -4.98959880E-01
 -1.42638121E+00  3.17521765E-31 -2.67767137E+00 -1.81074987E+00 -5.93674485E-31
Number of symbols in /Mol/                 I                0
Force Field                                I                0
Atom Types                                 C   N=           5
                                                            
Int Atom Types                             I   N=           5
           0           0           0           0           0
MM charges                                 R   N=           5
  0.00000000E+00  0.00000000E+00  0.00000000E+00  0.00000000E+00  0.00000000E+00
Integer atomic weights                     I   N=           5
           1          16          16          14          16
Real atomic weights                        R   N=           5
  1.00782504E+00  1.59949146E+01  1.59949146E+01  1.40030740E+01  1.59949146E+01
Atom fragment info                         I   N=           5
           0           0           0           0           0
Atom residue num                           I   N=           5
           0           0           0           0           0
Nuclear spins                              I   N=           5
           1           0           0           2           0
Nuclear ZEff                               R   N=           5
 -1.00000000E+00 -5.60000000E+00 -5.60000000E+00 -4.55000000E+00 -5.60000000E+00
Nuclear ZNuc                               R   N=           5
  1.00000000E+00  8.00000000E+00  8.00000000E+00  7.00000000E+00  8.00000000E+00
Nuclear QMom                               R   N=           5
  0.00000000E+00  0.00000000E+00  0.00000000E+00  2.04400000E+00  0.00000000E+00
Nuclear GFac                               R   N=           5
  2.79284600E+00  0.00000000E+00  0.00000000E+00  4.03761000E-01  0.00000000E+00
MicOpt                                     I   N=           5
          -1          -1          -1          -1          -1
Number of residues                         I                0
Number of secondary structures             I                0
SymInf integers                            I   N=          26
           1           2           1           1           1           1
           1          -1           0           0           0           0
           0           0           0           0           0           0
           0           0           0           0           0           0
           0           0
RotTr to input orientation                 R   N=          12
 -9.95011497E-01  6.80575389E-16 -9.97603131E-02  9.97603131E-02 -9.30704038E-16
 -9.95011497E-01 -7.70027663E-16 -1.00000000E+00  8.58166804E-16  2.59710808E+00
  0.00000000E+00  3.47286415E+00
Number of contracted shells                I               65
Number of primitive shells                 I              119
Pure/Cartesian d shells                    I                0
Pure/Cartesian f shells                    I                0
Highest angular momentum                   I                3
Largest degree of contraction              I                7
Shell types                                I   N=          65
           0           0           0           0           1           1
           1          -2          -2           0           0           0
           0           0           1           1           1           1
          -2          -2          -2          -3          -3           0
           0           0           0           0           1           1
           1           1          -2          -2          -2          -3
          -3           0           0           0           0           0
           1           1           1           1          -2          -2
          -2          -3          -3           0           0           0
           0           0           1           1           1           1
          -2          -2          -2          -3          -3
Number of primitives per shell             I   N=          65
           3           1           1           1           1           1
           1           1           1           7           6           1
           1           1           3           1           1           1
           1           1           1           1           1           7
           6           1           1           1           3           1
           1           1           1           1           1           1
           1           7           6           1           1           1
           3           1           1           1           1           1
           1           1           1           7           6           1
           1           1           3           1           1           1
           1           1           1           1           1
Shell to atom map                          I   N=          65
           1           1           1           1           1           1
           1           1           1           2           2           2
           2           2           2           2           2           2
           2           2           2           2           2           3
           3           3           3           3           3           3
           3           3           3           3           3           3
           3           4           4           4           4           4
           4           4           4           4           4           4
           4           4           4           5           5           5
           5           5           5           5           5           5
           5           5           5           5           5
Primitive exponents                        R   N=         119
  3.38700000E+01  5.09500000E+00  1.15900000E+00  3.25800000E-01  1.02700000E-01
  2.52600000E-02  1.40700000E+00  3.88000000E-01  1.02000000E-01  1.05700000E+00
  2.47000000E-01  1.53300000E+04  2.29900000E+03  5.22400000E+02  1.47300000E+02
  4.75500000E+01  1.67600000E+01  6.20700000E+00  5.22400000E+02  1.47300000E+02
  4.75500000E+01  1.67600000E+01  6.20700000E+00  6.88200000E-01  1.75200000E+00
  2.38400000E-01  7.37600000E-02  3.44600000E+01  7.74900000E+00  2.28000000E+00
  7.15600000E-01  2.14000000E-01  5.97400000E-02  2.31400000E+00  6.45000000E-01
  2.14000000E-01  1.42800000E+00  5.00000000E-01  1.53300000E+04  2.29900000E+03
  5.22400000E+02  1.47300000E+02  4.75500000E+01  1.67600000E+01  6.20700000E+00
  5.22400000E+02  1.47300000E+02  4.75500000E+01  1.67600000E+01  6.20700000E+00
  6.88200000E-01  1.75200000E+00  2.38400000E-01  7.37600000E-02  3.44600000E+01
  7.74900000E+00  2.28000000E+00  7.15600000E-01  2.14000000E-01  5.97400000E-02
  2.31400000E+00  6.45000000E-01  2.14000000E-01  1.42800000E+00  5.00000000E-01
  1.14200000E+04  1.71200000E+03  3.89300000E+02  1.10000000E+02  3.55700000E+01
  1.25400000E+01  4.64400000E+00  3.89300000E+02  1.10000000E+02  3.55700000E+01
  1.25400000E+01  4.64400000E+00  5.11800000E-01  1.29300000E+00  1.78700000E-01
  5.76000000E-02  2.66300000E+01  5.94800000E+00  1.74200000E+00  5.55000000E-01
  1.72500000E-01  4.91000000E-02  1.65400000E+00  4.69000000E-01  1.51000000E-01
  1.09300000E+00  3.64000000E-01  1.53300000E+04  2.29900000E+03  5.22400000E+02
  1.47300000E+02  4.75500000E+01  1.67600000E+01  6.20700000E+00  5.22400000E+02
  1.47300000E+02  4.75500000E+01  1.67600000E+01  6.20700000E+00  6.88200000E-01
  1.75200000E+00  2.38400000E-01  7.37600000E-02  3.44600000E+01  7.74900000E+00
  2.28000000E+00  7.15600000E-01  2.14000000E-01  5.97400000E-02  2.31400000E+00
  6.45000000E-01  2.14000000E-01  1.42800000E+00  5.00000000E-01
Contraction coefficients                   R   N=         119
  2.54948632E-02  1.90362766E-01  8.52162022E-01  1.00000000E+00  1.00000000E+00
  1.00000000E+00  1.00000000E+00  1.00000000E+00  1.00000000E+00  1.00000000E+00
  1.00000000E+00  5.19808943E-04  4.02025621E-03  2.07128267E-02  8.10105536E-02
  2.35962985E-01  4.42653446E-01  3.57064423E-01 -4.42115008E-05 -1.22591041E-03
 -1.05517725E-02 -6.74452633E-02 -1.71198607E-01  1.07329856E+00  1.00000000E+00
  1.00000000E+00  1.00000000E+00  4.11634896E-02  2.57762836E-01  8.02419274E-01
  1.00000000E+00  1.00000000E+00  1.00000000E+00  1.00000000E+00  1.00000000E+00
  1.00000000E+00  1.00000000E+00  1.00000000E+00  5.19808943E-04  4.02025621E-03
  2.07128267E-02  8.10105536E-02  2.35962985E-01  4.42653446E-01  3.57064423E-01
 -4.42115008E-05 -1.22591041E-03 -1.05517725E-02 -6.74452633E-02 -1.71198607E-01
  1.07329856E+00  1.00000000E+00  1.00000000E+00  1.00000000E+00  4.11634896E-02
  2.57762836E-01  8.02419274E-01  1.00000000E+00  1.00000000E+00  1.00000000E+00
  1.00000000E+00  1.00000000E+00  1.00000000E+00  1.00000000E+00  1.00000000E+00
  5.34563860E-04  4.13435660E-03  2.12335358E-02  8.25006224E-02  2.38138871E-01
  4.42551547E-01  3.53757422E-01 -4.89867350E-05 -1.19527323E-03 -1.03490714E-02
 -6.48680190E-02 -1.71552477E-01  1.07289568E+00  1.00000000E+00  1.00000000E+00
  1.00000000E+00  3.98072123E-02  2.49002660E-01  8.10479727E-01  1.00000000E+00
  1.00000000E+00  1.00000000E+00  1.00000000E+00  1.00000000E+00  1.00000000E+00
  1.00000000E+00  1.00000000E+00  5.19808943E-04  4.02025621E-03  2.07128267E-02
  8.10105536E-02  2.35962985E-01  4.42653446E-01  3.57064423E-01 -4.42115008E-05
 -1.22591041E-03 -1.05517725E-02 -6.74452633E-02 -1.71198607E-01  1.07329856E+00
  1.00000000E+00  1.00000000E+00  1.00000000E+00  4.11634896E-02  2.57762836E-01
  8.02419274E-01  1.00000000E+00  1.00000000E+00  1.00000000E+00  1.00000000E+00
  1.00000000E+00  1.00000000E+00  1.00000000E+00  1.00000000E+00
Coordinates of each shell                  R   N=         195
  2.93060642E+00  3.19645144E+00  1.71225422E-31  2.93060642E+00  3.19645144E+00
  1.71225422E-31  2.93060642E+00  3.19645144E+00  1.71225422E-31  2.93060642E+00
  3.19645144E+00  1.71225422E-31  2.93060642E+00  3.19645144E+00  1.71225422E-31
  2.93060642E+00  3.19645144E+00  1.71225422E-31  2.93060642E+00  3.19645144E+00
  1.71225422E-31  2.93060642E+00  3.19645144E+00  1.71225422E-31  2.93060642E+00
  3.19645144E+00  1.71225422E-31  2.74793546E+00  1.37448745E+00  8.09452993E-32
  2.74793546E+00  1.37448745E+00  8.09452993E-32  2.74793546E+00  1.37448745E+00
  8.09452993E-32  2.74793546E+00  1.37448745E+00  8.09452993E-32  2.74793546E+00
  1.37448745E+00  8.09452993E-32  2.74793546E+00  1.37448745E+00  8.09452993E-32
  2.74793546E+00  1.37448745E+00  8.09452993E-32  2.74793546E+00  1.37448745E+00
  8.09452993E-32  2.74793546E+00  1.37448745E+00  8.09452993E-32  2.74793546E+00
  1.37448745E+00  8.09452993E-32  2.74793546E+00  1.37448745E+00  8.09452993E-32
  2.74793546E+00  1.37448745E+00  8.09452993E-32  2.74793546E+00  1.37448745E+00
  8.09452993E-32  2.74793546E+00  1.37448745E+00  8.09452993E-32 -2.75630253E-18
  1.28478955E+00  6.30290186E-32 -2.75630253E-18  1.28478955E+00  6.30290186E-32
 -2.75630253E-18  1.28478955E+00  6.30290186E-32 -2.75630253E-18  1.28478955E+00
  6.30290186E-32 -2.75630253E-18  1.28478955E+00  6.30290186E-32 -2.75630253E-18
  1.28478955E+00  6.30290186E-32 -2.75630253E-18  1.28478955E+00  6.30290186E-32
 -2.75630253E-18  1.28478955E+00  6.30290186E-32 -2.75630253E-18  1.28478955E+00
  6.30290186E-32 -2.75630253E-18  1.28478955E+00  6.30290186E-32 -2.75630253E-18
  1.28478955E+00  6.30290186E-32 -2.75630253E-18  1.28478955E+00  6.30290186E-32
 -2.75630253E-18  1.28478955E+00  6.30290186E-32 -2.75630253E-18  1.28478955E+00
  6.30290186E-32 -4.98959880E-01 -1.42638121E+00 -7.24293673E-32 -4.98959880E-01
 -1.42638121E+00 -7.24293673E-32 -4.98959880E-01 -1.42638121E+00 -7.24293673E-32
 -4.98959880E-01 -1.42638121E+00 -7.24293673E-32 -4.98959880E-01 -1.42638121E+00
 -7.24293673E-32 -4.98959880E-01 -1.42638121E+00 -7.24293673E-32 -4.98959880E-01
 -1.42638121E+00 -7.24293673E-32 -4.98959880E-01 -1.42638121E+00 -7.24293673E-32
 -4.98959880E-01 -1.42638121E+00 -7.24293673E-32 -4.98959880E-01 -1.42638121E+00
 -7.24293673E-32 -4.98959880E-01 -1.42638121E+00 -7.24293673E-32 -4.98959880E-01
 -1.42638121E+00 -7.24293673E-32 -4.98959880E-01 -1.42638121E+00 -7.24293673E-32
 -4.98959880E-01 -1.42638121E+00 -7.24293673E-32 -2.67767137E+00 -1.81074987E+00
 -1.02001799E-31 -2.67767137E+00 -1.81074987E+00 -1.02001799E-31 -2.67767137E+00
 -1.81074987E+00 -1.02001799E-31 -2.67767137E+00 -1.81074987E+00 -1.02001799E-31
 -2.67767137E+00 -1.81074987E+00 -1.02001799E-31 -2.67767137E+00 -1.81074987E+00
 -1.02001799E-31 -2.67767137E+00 -1.81074987E+00 -1.02001799E-31 -2.67767137E+00
 -1.81074987E+00 -1.02001799E-31 -2.67767137E+00 -1.81074987E+00 -1.02001799E-31
 -2.67767137E+00 -1.81074987E+00 -1.02001799E-31 -2.67767137E+00 -1.81074987E+00
 -1.02001799E-31 -2.67767137E+00 -1.81074987E+00 -1.02001799E-31 -2.67767137E+00
 -1.81074987E+00 -1.02001799E-31 -2.67767137E+00 -1.81074987E+00 -1.02001799E-31
Num ILSW                                   I              100
ILSW                                       I   N=         100
           0           0           0           0           2           0
           0           0           0           0           0          -1
           5           0           0           0           0           0
           0           0           0           0           0           0
           1           0           0           0           0           0
           0           0      100000           0          -1           0
           0           0           0           0           0           0
           0           0           0           1           0           0
           0 -2000000000           1           0           0           0
           0           0           4          52           0           0
           0           0           0           0           0           0
           0           0           0           5           0           1
           0           0           0           0           0           0
           0           0           0           0           0           0
           0           0           0           0           0           0
           0           0           0           0           0           0
           0           0           0           0
Num RLSW                                   I               52
RLSW                                       R   N=          52
  1.00000000E+00  1.00000000E+00  1.00000000E+00  1.00000000E+00  1.00000000E+00
  0.00000000E+00  0.00000000E+00  1.00000000E+00  0.00000000E+00  0.00000000E+00
  0.00000000E+00  0.00000000E+00  1.00000000E+00  0.00000000E+00  0.00000000E+00
  0.00000000E+00  0.00000000E+00  1.00000000E+00  0.00000000E+00  0.00000000E+00
  0.00000000E+00  0.00000000E+00  1.00000000E+00  0.00000000E+00  0.00000000E+00
  0.00000000E+00  0.00000000E+00  1.00000000E+00  0.00000000E+00  0.00000000E+00
  0.00000000E+00  0.00000000E+00  1.00000000E+00  0.00000000E+00  0.00000000E+00
  0.00000000E+00  0.00000000E+00  0.00000000E+00  1.00000000E+00  1.00000000E+00
  0.00000000E+00  1.00000000E+00  0.00000000E+00  0.00000000E+00  0.00000000E+00
  0.00000000E+00  0.00000000E+00  0.00000000E+00  0.00000000E+00  0.00000000E+00
  0.00000000E+00  0.00000000E+00
MxBond                                     I                2
NBond                                      I   N=           5
           1           2           2           2           1
IBond                                      I   N=          10
           2           0           1           3           2           4
           3           5           4           0
RBond                                      R   N=          10
  1.00000000E+00  0.00000000E+00  1.00000000E+00  1.00000000E+00  1.00000000E+00
  1.00000000E+00  1.00000000E+00  2.00000000E+00  2.00000000E+00  0.00000000E+00
Virial Ratio                               R      2.002384804706151E+00
SCF Energy                                 R     -2.795014466593877E+02
MP2 Energy                                 R     -2.804465986212309E+02
Total Energy                               R     -2.804465986212309E+02
Post-SCF wavefunction norm                 R      1.120287101028445E+00
RMS Density                                R      3.857760956587499E-09
Job Status                                 I                1
Nuclear derivative order                   I                0
External E-field                           R   N=          35
  0.00000000E+00  0.00000000E+00  0.00000000E+00  0.00000000E+00  0.00000000E+00
  0.00000000E+00  0.00000000E+00  0.00000000E+00  0.00000000E+00  0.00000000E+00
  0.00000000E+00  0.00000000E+00  0.00000000E+00  0.00000000E+00  0.00000000E+00
  0.00000000E+00  0.00000000E+00  0.00000000E+00  0.00000000E+00  0.00000000E+00
  0.00000000E+00  0.00000000E+00  0.00000000E+00  0.00000000E+00  0.00000000E+00
  0.00000000E+00  0.00000000E+00  0.00000000E+00  0.00000000E+00  0.00000000E+00
  0.00000000E+00  0.00000000E+00  0.00000000E+00  0.00000000E+00  0.00000000E+00
IOpCl                                      I                0
IROHF                                      I                0
Alpha Orbital Energies                     R   N=         207
 -2.06914537E+01 -2.06847686E+01 -2.06608296E+01 -1.58123506E+01 -1.62292077E+00
 -1.49673046E+00 -1.25549120E+00 -9.47721650E-01 -7.73500535E-01 -7.58732379E-01
 -7.11542770E-01 -6.79719082E-01 -6.20979471E-01 -5.90587191E-01 -4.85856813E-01
 -4.70804324E-01  2.95236609E-02  7.22463459E-02  8.56746250E-02  1.01732656E-01
  1.34030390E-01  1.34034758E-01  1.44028752E-01  1.54620476E-01  1.78114709E-01
  1.94226376E-01  1.99757768E-01  2.06090238E-01  2.20811553E-01  2.34086391E-01
  2.37199655E-01  2.65087271E-01  2.94442186E-01  3.04316377E-01  3.10700619E-01
  3.42981491E-01  3.49939139E-01  3.86743373E-01  4.21424103E-01  4.31192904E-01
  5.26067771E-01  5.30324008E-01  5.59068154E-01  5.83009349E-01  6.26750495E-01
  6.35327697E-01  6.74079333E-01  6.84204209E-01  7.08460229E-01  7.10708555E-01
  7.24559997E-01  7.29747903E-01  7.46037603E-01  7.89351328E-01  7.91378498E-01
  8.09610082E-01  8.12202917E-01  8.30028391E-01  8.68289752E-01  9.07370317E-01
  9.21617458E-01  9.23446665E-01  9.56763505E-01  9.80025071E-01  9.84338566E-01
  1.01593347E+00  1.05216687E+00  1.05463286E+00  1.08164484E+00  1.11828478E+00
  1.14037453E+00  1.18873327E+00  1.22355645E+00  1.23202372E+00  1.33818778E+00
  1.34864507E+00  1.38384187E+00  1.45140866E+00  1.48804619E+00  1.51035483E+00
  1.53899972E+00  1.56555053E+00  1.58008008E+00  1.61410086E+00  1.66346747E+00
  1.66780390E+00  1.70453163E+00  1.79352558E+00  1.83312558E+00  1.83393202E+00
  1.87591763E+00  1.91212451E+00  1.95553715E+00  1.99069508E+00  2.00950357E+00
  2.07422931E+00  2.11889205E+00  2.13356395E+00  2.14846161E+00  2.22273472E+00
  2.26106621E+00  2.26361012E+00  2.28985852E+00  2.31417161E+00  2.34035681E+00
  2.38602106E+00  2.42180920E+00  2.42870188E+00  2.45691441E+00  2.46692458E+00
  2.47581750E+00  2.50216598E+00  2.58980633E+00  2.59425053E+00  2.61674765E+00
  2.62714895E+00  2.63496136E+00  2.66423293E+00  2.76187453E+00  2.83355311E+00
  2.86329937E+00  2.87561725E+00  2.89460001E+00  2.90790523E+00  2.96437679E+00
  3.02281527E+00  3.07277319E+00  3.11644596E+00  3.20482729E+00  3.23022961E+00
  3.31399731E+00  3.34610070E+00  3.50730075E+00  3.64903612E+00  3.83854776E+00
  3.84483591E+00  4.14774099E+00  4.15811609E+00  4.18284014E+00  4.25725620E+00
  4.35540943E+00  4.39288809E+00  4.46330901E+00  4.51805384E+00  4.66773033E+00
  4.70913270E+00  4.80808112E+00  4.81958376E+00  4.82691290E+00  4.89488328E+00
  5.02158985E+00  5.07859085E+00  5.09922206E+00  5.14224813E+00  5.18483843E+00
  5.24056594E+00  5.26967232E+00  5.31199486E+00  5.32844015E+00  5.35871331E+00
  5.60976403E+00  5.67355619E+00  5.75374114E+00  5.82924141E+00  5.95806554E+00
  6.16750679E+00  6.30659619E+00  6.34008567E+00  6.39374209E+00  6.49089624E+00
  6.50169127E+00  6.61226950E+00  6.66761209E+00  6.69385009E+00  6.75682175E+00
  6.76148101E+00  6.82612862E+00  6.90336479E+00  7.01237562E+00  7.05466340E+00
  7.05687527E+00  7.08808515E+00  7.12606066E+00  7.14710076E+00  7.18062226E+00
  7.22418336E+00  7.24076585E+00  7.30688223E+00  7.32471925E+00  7.34820510E+00
  7.40021795E+00  7.43259090E+00  7.48639139E+00  7.60634406E+00  7.61574169E+00
  7.62973305E+00  7.66107329E+00  7.78058306E+00  7.89425842E+00  8.09170534E+00
  8.31404888E+00  8.40915017E+00  8.54526563E+00  1.33782369E+01  1.44096965E+01
  1.51539288E+01  1.61503569E+01
Alpha MO coefficients                      R   N=       42849
  9.16415253E-05 -6.57783708E-04 -7.26208415E-04 -5.32767301E-06 -2.11511819E-05
 -2.64218749E-05  0.00000000E+00 -4.37414365E-05  6.56024657E-05  0.00000000E+00
  8.70252933E-05  3.53285943E-05  0.00000000E+00  3.19503104E-05  0.00000000E+00
  0.00000000E+00 -4.89718768E-05  2.14514190E-05 -6.55249337E-06  0.00000000E+00
  0.00000000E+00 -1.36268509E-04  1.17463663E-04  4.62306118E-03 -2.82903196E-04
  1.68211947E-05  1.58083403E-03  1.82239997E-03  1.05689588E-04  7.22256101E-06
  0.00000000E+00 -6.15463084E-04 -3.33520296E-05  0.00000000E+00 -1.10248115E-03
  8.16583602E-04  0.00000000E+00 -4.02507986E-04  6.56165969E-05  0.00000000E+00
  2.87180733E-05  0.00000000E+00  0.00000000E+00 -5.37923999E-05  5.81457511E-06
 -3.77845897E-04  0.00000000E+00  0.00000000E+00  7.36863901E-04 -3.32417624E-05
 -4.47428525E-04  0.00000000E+00  0.00000000E+00  2.36867447E-04 -2.33812978E-05
  0.00000000E+00  7.98269595E-05  1.25564176E-05  0.00000000E+00  0.00000000E+00
 -1.09545620E-04 -3.07706527E-06  0.00000000E+00  2.53603182E-04 -2.83916602E-05
  0.00000000E+00  0.00000000E+00 -3.51826017E-04  5.13639060E-05  9.76911346E-01
 -9.21558139E-03  4.33182260E-02  2.05192945E-03 -9.35694596E-04  1.48636643E-03
 -1.36931598E-03  0.00000000E+00 -1.42740661E-03  1.39886454E-03  0.00000000E+00
  7.77470802E-05 -1.18094467E-03  0.00000000E+00 -1.34410181E-04 -9.65843594E-06
  0.00000000E+00  4.57098367E-05  0.00000000E+00  0.00000000E+00 -3.66237221E-05
  2.05507776E-05  7.45642397E-04  0.00000000E+00  0.00000000E+00 -2.27994856E-04
 -3.88432052E-04 -3.52159296E-04  0.00000000E+00  0.00000000E+00 -3.25100242E-04
 -3.91335080E-04  0.00000000E+00  4.76716460E-05 -4.94448503E-05  0.00000000E+00
  0.00000000E+00 -3.84867216E-05 -1.67713832E-05  0.00000000E+00  2.16055824E-05
  2.14779321E-05  0.00000000E+00  0.00000000E+00 -3.07525912E-04 -1.37571296E-04
  3.92888384E-05  4.65200512E-05 -2.66394240E-04 -6.78900704E-04 -1.16595996E-04
 -2.78925048E-05 -9.85211084E-05  0.00000000E+00  2.67791690E-04  7.18162044E-04
  0.00000000E+00 -8.65293525E-04 -5.02794083E-04  0.00000000E+00 -1.26313583E-04
 -2.27743292E-05  0.00000000E+00 -1.79516243E-05  0.00000000E+00  0.00000000E+00
 -2.92172753E-05  1.36010897E-05 -3.30810529E-04  0.00000000E+00  0.00000000E+00
 -8.33500461E-04  1.33248075E-04 -3.66421143E-05  0.00000000E+00  0.00000000E+00
  1.03793329E-04 -1.08773934E-04  0.00000000E+00 -2.11051585E-05 -1.20602185E-04
  0.00000000E+00  0.00000000E+00 -6.30724539E-05 -1.38528334E-04  0.00000000E+00
  9.35901627E-07 -1.51855833E-04  0.00000000E+00  0.00000000E+00  4.43599909E-05
 -4.24829869E-04 -2.49149961E-03  1.11353023E-04 -1.23284230E-04 -2.68840027E-04
  1.14498380E-04 -8.25863315E-06 -3.03697226E-05  0.00000000E+00  6.36330161E-05
  1.75694931E-04  0.00000000E+00  2.18977866E-04  2.14032570E-04  0.00000000E+00
  1.21904758E-04  2.21616010E-05  0.00000000E+00 -2.54980951E-06  0.00000000E+00
  0.00000000E+00 -1.73144445E-05  2.47617666E-07 -5.65445902E-06  0.00000000E+00
  0.00000000E+00  6.88606123E-05  9.81678213E-05 -1.05208918E-04  0.00000000E+00
  0.00000000E+00  1.53568707E-04  1.66373925E-04  0.00000000E+00  1.50612264E-05
 -4.70849131E-06  0.00000000E+00  0.00000000E+00 -6.10553022E-06 -1.17203626E-05
  0.00000000E+00 -3.69484585E-05  4.67471614E-05  0.00000000E+00  0.00000000E+00
  7.58368897E-05  9.11384897E-05  3.85678015E-05 -1.00259561E-03 -4.97487537E-04
 -1.10716784E-05 -2.41752393E-05  1.73292056E-05  0.00000000E+00  5.05680217E-06
  2.85162198E-04  0.00000000E+00 -3.81144599E-05  1.36541870E-04  0.00000000E+00
  2.65359332E-05  0.00000000E+00  0.00000000E+00  1.40019345E-05  1.10281318E-05
 -2.46066389E-05  0.00000000E+00  0.00000000E+00  1.03652749E-05  3.42479373E-05
  1.11289800E-04  8.41260131E-05 -2.86738540E-05  7.80379906E-04  6.44527314E-04
  1.00592591E-05  2.44431223E-06  0.00000000E+00 -7.06812849E-05  1.98912377E-05
  0.00000000E+00  3.27065215E-04  8.86329969E-04  0.00000000E+00  6.45541171E-06
  7.80557424E-05  0.00000000E+00 -2.19952176E-06  0.00000000E+00  0.00000000E+00
 -2.01392077E-08 -7.33723430E-06 -3.73405608E-05  0.00000000E+00  0.00000000E+00
 -2.38071211E-05  9.12391075E-05 -2.25818962E-05  0.00000000E+00  0.00000000E+00
 -2.62613820E-04 -1.51256254E-04  0.00000000E+00  9.51737721E-06  5.81948028E-06
  0.00000000E+00  0.00000000E+00  3.02819699E-06 -1.92448146E-05  0.00000000E+00
 -4.22516989E-05 -3.72068922E-05  0.00000000E+00  0.00000000E+00 -7.83202689E-05
  1.54155365E-05  2.52900246E-03  3.71934527E-05  8.21916761E-05 -4.51039808E-05
 -4.33993070E-04  9.35145871E-06  1.91982806E-05  0.00000000E+00 -6.88887835E-05
 -6.88155028E-05  0.00000000E+00  1.91877838E-04 -1.90767714E-04  0.00000000E+00
 -1.77340313E-04 -5.94453882E-05  0.00000000E+00 -8.18280749E-06  0.00000000E+00
  0.00000000E+00  2.24913507E-05  1.73297455E-05 -2.61805405E-06  0.00000000E+00
  0.00000000E+00 -1.21274575E-04 -2.93613909E-05 -1.25778856E-05  0.00000000E+00
  0.00000000E+00 -2.22228328E-04 -1.68527943E-04  0.00000000E+00  5.26956792E-06
  2.44879754E-06  0.00000000E+00  0.00000000E+00  4.59933984E-06 -1.58377678E-05
  0.00000000E+00 -4.80667512E-05  2.87827246E-07  0.00000000E+00  0.00000000E+00
 -7.22627524E-05  1.95582812E-04  2.59499136E-04  1.47309548E-03 -7.50394464E-05
 -1.60674590E-03  3.78179593E-04 -1.43359645E-04 -4.53856078E-07  0.00000000E+00
 -2.09436684E-03 -4.54012559E-04  0.00000000E+00  1.08457195E-03  7.88263287E-04
  0.00000000E+00 -1.77079716E-04  4.29013394E-05  0.00000000E+00 -1.24379034E-04
  0.00000000E+00  0.00000000E+00  2.37944268E-04  1.03300086E-04 -4.36356747E-04
  0.00000000E+00  0.00000000E+00  9.14263018E-04 -3.41011711E-05  1.89222382E-05
  0.00000000E+00  0.00000000E+00 -3.36718414E-04 -1.27882691E-04  0.00000000E+00
 -1.44216485E-07  1.62651555E-05  0.00000000E+00  0.00000000E+00  1.78634525E-05
  1.58523716E-05  0.00000000E+00  1.60979998E-04 -6.84479636E-05  0.00000000E+00
  0.00000000E+00 -2.48952127E-04  3.69488589E-05  9.76651750E-01 -9.84630449E-03
  4.35649033E-02  4.53628430E-03 -4.38670026E-04  2.13564500E-03  5.41892559E-04
  0.00000000E+00 -2.37108640E-03 -6.68140627E-04  0.00000000E+00  1.14471156E-03
 -2.38221861E-06  0.00000000E+00  6.40141510E-06 -3.84512144E-05  0.00000000E+00
 -2.31311675E-04  0.00000000E+00  0.00000000E+00  1.02418169E-04  3.53262320E-05
  3.92358055E-04  0.00000000E+00  0.00000000E+00 -8.14816572E-04 -4.66096847E-04
 -1.47408711E-04  0.00000000E+00  0.00000000E+00  2.62153148E-04  1.43486335E-05
  0.00000000E+00  5.18732074E-05  1.81261757E-05  0.00000000E+00  0.00000000E+00
 -2.21549368E-05 -1.53485605E-05  0.00000000E+00  1.38870695E-04  1.57732867E-05
  0.00000000E+00  0.00000000E+00 -1.77390690E-04 -1.55728549E-04  4.74594795E-04
  2.06900806E-03  1.23474595E-04  1.50899309E-05 -4.15792793E-05 -2.46683662E-04
  0.00000000E+00  1.08404936E-04 -1.27833866E-03  0.00000000E+00  3.03482353E-04
 -3.42450741E-04  0.00000000E+00 -2.80944147E-06  0.00000000E+00  0.00000000E+00
  7.57654582E-05  1.53341309E-05 -1.60638660E-04  0.00000000E+00  0.00000000E+00
 -5.37024585E-04 -2.00195334E-05  9.76830739E-01 -9.16312170E-03  4.34486222E-02
  1.57086082E-04 -1.12255010E-03 -1.56290126E-03  1.44519643E-03  0.00000000E+00
  1.57461444E-03 -1.28820635E-03  0.00000000E+00 -5.74610035E-04 -8.72880193E-04
  0.00000000E+00  5.42692766E-05 -2.52017592E-05  0.00000000E+00  2.98101240E-05
  0.00000000E+00  0.00000000E+00 -1.18399096E-04 -2.90591687E-06  7.58254888E-04
  0.00000000E+00  0.00000000E+00 -2.03329448E-04 -2.35457419E-04 -2.65490575E-04
  0.00000000E+00  0.00000000E+00  1.72234606E-04  1.27874204E-04  0.00000000E+00
 -6.41491708E-05  1.37415645E-06  0.00000000E+00  0.00000000E+00  1.90161531E-05
  9.59980657E-06  0.00000000E+00 -1.10543437E-06  1.22948906E-04  0.00000000E+00
  0.00000000E+00  2.57795213E-04  9.10092334E-05 -4.71592579E-03 -2.12663841E-04