 Entering Gaussian System, Link 0=g16
 Input=hoono_r3_1p484340.gjf
 Output=hoono_r3_1p484340.log
 Initial command:
 /sw/contrib/gaussian/g16/B01/g16/l1.exe "/scr/Gau-12085.inp" -scrdir="/scr/"
 Entering Link 1 = /sw/contrib/gaussian/g16/B01/g16/l1.exe PID=     12086.
  
 Copyright (c) 1988-2017, Gaussian, Inc.  All Rights Reserved.
  
 This is part of the Gaussian(R) 16 program.  It is based on
 the Gaussian(R) 09 system (copyright 2009, Gaussian, Inc.),
 the Gaussian(R) 03 system (copyright 2003, Gaussian, Inc.),
 the Gaussian(R) 98 system (copyright 1998, Gaussian, Inc.),
 the Gaussian(R) 94 system (copyright 1995, Gaussian, Inc.),
 the Gaussian 92(TM) system (copyright 1992, Gaussian, Inc.),
 the Gaussian 90(TM) system (copyright 1990, Gaussian, Inc.),
 the Gaussian 88(TM) system (copyright 1988, Gaussian, Inc.),
 the Gaussian 86(TM) system (copyright 1986, Carnegie Mellon
 University), and the Gaussian 82(TM) system (copyright 1983,
 Carnegie Mellon University). Gaussian is a federally registered
 trademark of Gaussian, Inc.
  
 This software contains proprietary and confidential information,
 including trade secrets, belonging to Gaussian, Inc.
  
 This software is provided under written license and may be
 used, copied, transmitted, or stored only in accord with that
 written license.
  
 The following legend is applicable only to US Government
 contracts under FAR:
  
                    RESTRICTED RIGHTS LEGEND
  
 Use, reproduction and disclosure by the US Government is
 subject to restrictions as set forth in subparagraphs (a)
 and (c) of the Commercial Computer Software - Restricted
 Rights clause in FAR 52.227-19.
  
 Gaussian, Inc.
 340 Quinnipiac St., Bldg. 40, Wallingford CT 06492
  
  
 ---------------------------------------------------------------
 Warning -- This program may not be used in any manner that
 competes with the business of Gaussian, Inc. or will provide
 assistance to any competitor of Gaussian, Inc.  The licensee
 of this program is prohibited from giving any competitor of
 Gaussian, Inc. access to this program.  By using this program,
 the user acknowledges that Gaussian, Inc. is engaged in the
 business of creating and licensing software in the field of
 computational chemistry and represents and warrants to the
 licensee that it is not a competitor of Gaussian, Inc. and that
 it will not use this program in any manner prohibited above.
 ---------------------------------------------------------------
  

 Cite this work as:
 Gaussian 16, Revision B.01,
 M. J. Frisch, G. W. Trucks, H. B. Schlegel, G. E. Scuseria, 
 M. A. Robb, J. R. Cheeseman, G. Scalmani, V. Barone, 
 G. A. Petersson, H. Nakatsuji, X. Li, M. Caricato, A. V. Marenich, 
 J. Bloino, B. G. Janesko, R. Gomperts, B. Mennucci, H. P. Hratchian, 
 J. V. Ortiz, A. F. Izmaylov, J. L. Sonnenberg, D. Williams-Young, 
 F. Ding, F. Lipparini, F. Egidi, J. Goings, B. Peng, A. Petrone, 
 T. Henderson, D. Ranasinghe, V. G. Zakrzewski, J. Gao, N. Rega, 
 G. Zheng, W. Liang, M. Hada, M. Ehara, K. Toyota, R. Fukuda, 
 J. Hasegawa, M. Ishida, T. Nakajima, Y. Honda, O. Kitao, H. Nakai, 
 T. Vreven, K. Throssell, J. A. Montgomery, Jr., J. E. Peralta, 
 F. Ogliaro, M. J. Bearpark, J. J. Heyd, E. N. Brothers, K. N. Kudin, 
 V. N. Staroverov, T. A. Keith, R. Kobayashi, J. Normand, 
 K. Raghavachari, A. P. Rendell, J. C. Burant, S. S. Iyengar, 
 J. Tomasi, M. Cossi, J. M. Millam, M. Klene, C. Adamo, R. Cammi, 
 J. W. Ochterski, R. L. Martin, K. Morokuma, O. Farkas, 
 J. B. Foresman, and D. J. Fox, Gaussian, Inc., Wallingford CT, 2016.
 
 ******************************************
 Gaussian 16:  ES64L-G16RevB.01 20-Dec-2017
                14-Feb-2022 
 ******************************************
 %nproc=28
 Will use up to   28 processors via shared memory.
 %mem=120GB
 %chk=hoono_r3_1p484340.chk
 -------------------------------------
 #p SP mp2/aug-cc-pvtz density=current
 -------------------------------------
 1/30=1,38=1,172=1/1;
 2/12=2,17=6,18=5,40=1/2;
 3/5=16,6=1,7=10,11=9,25=1,30=1,71=1/1,2,3;
 4//1;
 5/5=2,38=5/2;
 8/6=4,10=1/1;
 9/15=1,16=-3/6;
 10/5=1,13=10/2;
 6/7=2,8=2,9=2,10=2,22=-1/1;
 99/5=1,9=1/99;
 Leave Link    1 at Mon Feb 14 13:07:44 2022, MaxMem= 16106127360 cpu:               2.4 elap:               0.1
 (Enter /sw/contrib/gaussian/g16/B01/g16/l101.exe)
 -----
 title
 -----
 Symbolic Z-matrix:
 Charge =  0 Multiplicity = 1
 H
 O                    1    r1
 O                    2    r2       1    a1
 N                    3    r3       2    a2       1    d1       0
 O                    4    r4       3    a3       2    d2       0
       Variables:
  r1                    0.96898                  
  r2                    1.45492                  
  r3                    1.48434                  
  r4                    1.17073                  
  a1                   97.59495                  
  a2                  102.29752                  
  a3                  109.06955                  
  d1                  180.                       
  d2                  180.                       
 
 ITRead=  0  0  0  0  0
 MicOpt= -1 -1 -1 -1 -1
 NAtoms=      5 NQM=        5 NQMF=       0 NMMI=      0 NMMIF=      0
                NMic=       0 NMicF=      0.
                    Isotopes and Nuclear Properties:
 (Nuclear quadrupole moments (NQMom) in fm**2, nuclear magnetic moments (NMagM)
  in nuclear magnetons)

  Atom         1           2           3           4           5
 IAtWgt=           1          16          16          14          16
 AtmWgt=   1.0078250  15.9949146  15.9949146  14.0030740  15.9949146
 NucSpn=           1           0           0           2           0
 AtZEff=  -0.0000000  -0.0000000  -0.0000000  -0.0000000  -0.0000000
 NQMom=    0.0000000   0.0000000   0.0000000   2.0440000   0.0000000
 NMagM=    2.7928460   0.0000000   0.0000000   0.4037610   0.0000000
 AtZNuc=   1.0000000   8.0000000   8.0000000   7.0000000   8.0000000
 Leave Link  101 at Mon Feb 14 13:07:44 2022, MaxMem= 16106127360 cpu:               2.7 elap:               0.1
 (Enter /sw/contrib/gaussian/g16/B01/g16/l202.exe)
                          Input orientation:                          
 ---------------------------------------------------------------------
 Center     Atomic      Atomic             Coordinates (Angstroms)
 Number     Number       Type             X           Y           Z
 ---------------------------------------------------------------------
      1          1           0        0.000000    0.000000    0.000000
      2          8           0        0.000000    0.000000    0.968976
      3          8           0        1.442156    0.000000    1.161271
      4          7           0        1.563847    0.000000    2.640615
      5          8           0        2.697963    0.000000    2.931110
 ---------------------------------------------------------------------
                    Distance matrix (angstroms):
                    1          2          3          4          5
     1  H    0.000000
     2  O    0.968976   0.000000
     3  O    1.851584   1.454919   0.000000
     4  N    3.068951   2.289103   1.484341   0.000000
     5  O    3.983768   3.336011   2.170111   1.170729   0.000000
 Stoichiometry    HNO3
 Framework group  CS[SG(HNO3)]
 Deg. of freedom     7
 Full point group                 CS      NOp   2
 Largest Abelian subgroup         CS      NOp   2
 Largest concise Abelian subgroup C1      NOp   1
                         Standard orientation:                         
 ---------------------------------------------------------------------
 Center     Atomic      Atomic             Coordinates (Angstroms)
 Number     Number       Type             X           Y           Z
 ---------------------------------------------------------------------
      1          1           0        1.545922    1.703860   -0.000000
      2          8           0        1.453899    0.739264   -0.000000
      3          8           0       -0.000000    0.684798   -0.000000
      4          7           0       -0.261633   -0.776303    0.000000
      5          8           0       -1.418211   -0.957779    0.000000
 ---------------------------------------------------------------------
 Rotational constants (GHZ):          53.8906868           4.9465819           4.5307116
 Leave Link  202 at Mon Feb 14 13:07:44 2022, MaxMem= 16106127360 cpu:               0.3 elap:               0.0
 (Enter /sw/contrib/gaussian/g16/B01/g16/l301.exe)
 Standard basis: Aug-CC-pVTZ (5D, 7F)
 Ernie: Thresh=  0.10000D-02 Tol=  0.10000D-05 Strict=F.
 Ernie:  12 primitive shells out of 131 were deleted.
 There are   166 symmetry adapted cartesian basis functions of A'  symmetry.
 There are    79 symmetry adapted cartesian basis functions of A"  symmetry.
 There are   136 symmetry adapted basis functions of A'  symmetry.
 There are    71 symmetry adapted basis functions of A"  symmetry.
   207 basis functions,   315 primitive gaussians,   245 cartesian basis functions
    16 alpha electrons       16 beta electrons
       nuclear repulsion energy       116.1835304819 Hartrees.
 IExCor=    0 DFT=F Ex=HF Corr=None ExCW=0 ScaHFX=  1.000000
 ScaDFX=  1.000000  1.000000  1.000000  1.000000 ScalE2=  1.000000  1.000000
 IRadAn=      5 IRanWt=     -1 IRanGd=            0 ICorTp=0 IEmpDi=  4
 NAtoms=    5 NActive=    5 NUniq=    5 SFac= 1.00D+00 NAtFMM=   60 NAOKFM=F Big=F
 Integral buffers will be    131072 words long.
 Raffenetti 1 integral format.
 Two-electron integral symmetry is turned on.
 Leave Link  301 at Mon Feb 14 13:07:44 2022, MaxMem= 16106127360 cpu:               2.2 elap:               0.1
 (Enter /sw/contrib/gaussian/g16/B01/g16/l302.exe)
 NPDir=0 NMtPBC=     1 NCelOv=     1 NCel=       1 NClECP=     1 NCelD=      1
         NCelK=      1 NCelE2=     1 NClLst=     1 CellRange=     0.0.
 One-electron integrals computed using PRISM.
 One-electron integral symmetry used in STVInt
 NBasis=   207 RedAO= T EigKep=  1.84D-04  NBF=   136    71
 NBsUse=   207 1.00D-06 EigRej= -1.00D+00 NBFU=   136    71
 Leave Link  302 at Mon Feb 14 13:07:45 2022, MaxMem= 16106127360 cpu:               4.7 elap:               0.2
 (Enter /sw/contrib/gaussian/g16/B01/g16/l303.exe)
 DipDrv:  MaxL=1.
 Leave Link  303 at Mon Feb 14 13:07:45 2022, MaxMem= 16106127360 cpu:               1.3 elap:               0.1
 (Enter /sw/contrib/gaussian/g16/B01/g16/l401.exe)
 ExpMin= 2.53D-02 ExpMax= 1.53D+04 ExpMxC= 5.22D+02 IAcc=3 IRadAn=         5 AccDes= 0.00D+00
 Harris functional with IExCor=  205 and IRadAn=       5 diagonalized for initial guess.
 HarFok:  IExCor=  205 AccDes= 0.00D+00 IRadAn=         5 IDoV= 1 UseB2=F ITyADJ=14
 ICtDFT=  3500011 ScaDFX=  1.000000  1.000000  1.000000  1.000000
 FoFCou: FMM=F IPFlag=           0 FMFlag=      100000 FMFlg1=           0
         NFxFlg=           0 DoJE=T BraDBF=F KetDBF=T FulRan=T
         wScrn=  0.000000 ICntrl=       500 IOpCl=  0 I1Cent=   200000004 NGrid=           0
         NMat0=    1 NMatS0=      1 NMatT0=    0 NMatD0=    1 NMtDS0=    0 NMtDT0=    0
 Petite list used in FoFCou.
 Harris En= -279.627652568982    
 JPrj=0 DoOrth=F DoCkMO=F.
 Initial guess orbital symmetries:
       Occupied  (A') (A') (A') (A') (A') (A') (A') (A') (A') (A')
                 (A") (A') (A') (A") (A") (A')
       Virtual   (A") (A') (A') (A') (A') (A') (A") (A') (A') (A')
                 (A") (A') (A") (A') (A') (A") (A') (A") (A') (A')
                 (A') (A') (A') (A') (A') (A") (A') (A") (A') (A')
                 (A") (A') (A") (A') (A') (A") (A') (A") (A') (A')
                 (A") (A') (A") (A') (A") (A') (A') (A') (A") (A")
                 (A') (A') (A') (A') (A") (A') (A") (A') (A") (A')
                 (A') (A') (A") (A') (A') (A") (A') (A") (A') (A')
                 (A") (A') (A') (A") (A") (A') (A') (A") (A') (A')
                 (A') (A") (A') (A") (A') (A") (A') (A") (A') (A')
                 (A') (A") (A') (A") (A') (A") (A") (A') (A') (A')
                 (A") (A') (A") (A') (A') (A') (A") (A') (A") (A')
                 (A") (A') (A') (A') (A") (A') (A') (A') (A") (A')
                 (A") (A') (A') (A") (A") (A') (A') (A") (A") (A')
                 (A') (A') (A') (A") (A") (A') (A") (A') (A') (A')
                 (A') (A") (A") (A') (A') (A") (A') (A') (A') (A')
                 (A") (A') (A') (A") (A') (A") (A') (A") (A") (A')
                 (A') (A") (A') (A") (A') (A") (A") (A") (A') (A')
                 (A") (A') (A") (A') (A') (A") (A") (A") (A') (A')
                 (A') (A') (A') (A') (A') (A') (A') (A') (A') (A')
                 (A')
 The electronic state of the initial guess is 1-A'.
 Leave Link  401 at Mon Feb 14 13:07:45 2022, MaxMem= 16106127360 cpu:               5.7 elap:               0.2
 (Enter /sw/contrib/gaussian/g16/B01/g16/l502.exe)
 Keep R1 ints in memory in symmetry-blocked form, NReq=348887737.
 FoFCou: FMM=F IPFlag=           0 FMFlag=           0 FMFlg1=           0
         NFxFlg=           0 DoJE=F BraDBF=F KetDBF=F FulRan=T
         wScrn=  0.000000 ICntrl=       600 IOpCl=  0 I1Cent=           0 NGrid=           0
         NMat0=    1 NMatS0=  21528 NMatT0=    0 NMatD0=    1 NMtDS0=    0 NMtDT0=    0
 Petite list used in FoFCou.
 Closed shell SCF:
 Using DIIS extrapolation, IDIIS=  1040.
 NGot= 16106127360 LenX= 15988850015 LenY= 15988789549
 Requested convergence on RMS density matrix=1.00D-08 within 128 cycles.
 Requested convergence on MAX density matrix=1.00D-06.
 Requested convergence on             energy=1.00D-06.
 No special actions if energy rises.

 Cycle   1  Pass 1  IDiag  1:
 E= -279.370429401776    
 DIIS: error= 2.74D-02 at cycle   1 NSaved=   1.
 NSaved= 1 IEnMin= 1 EnMin= -279.370429401776     IErMin= 1 ErrMin= 2.74D-02
 ErrMax= 2.74D-02  0.00D+00 EMaxC= 1.00D-01 BMatC= 4.35D-01 BMatP= 4.35D-01
 IDIUse=3 WtCom= 7.26D-01 WtEn= 2.74D-01
 Coeff-Com:  0.100D+01
 Coeff-En:   0.100D+01
 Coeff:      0.100D+01
 Gap=     0.500 Goal=   None    Shift=    0.000
 GapD=    0.500 DampG=2.000 DampE=0.500 DampFc=1.0000 IDamp=-1.
 RMSDP=1.60D-03 MaxDP=1.01D-01              OVMax= 1.06D-01

 Cycle   2  Pass 1  IDiag  1:
 E= -279.452866646262     Delta-E=       -0.082437244486 Rises=F Damp=F
 DIIS: error= 1.76D-02 at cycle   2 NSaved=   2.
 NSaved= 2 IEnMin= 2 EnMin= -279.452866646262     IErMin= 2 ErrMin= 1.76D-02
 ErrMax= 1.76D-02  0.00D+00 EMaxC= 1.00D-01 BMatC= 6.67D-02 BMatP= 4.35D-01
 IDIUse=3 WtCom= 8.24D-01 WtEn= 1.76D-01
 Coeff-Com:  0.185D+00 0.815D+00
 Coeff-En:   0.000D+00 0.100D+01
 Coeff:      0.153D+00 0.847D+00
 Gap=     0.525 Goal=   None    Shift=    0.000
 RMSDP=8.74D-04 MaxDP=3.64D-02 DE=-8.24D-02 OVMax= 7.10D-02

 Cycle   3  Pass 1  IDiag  1:
 E= -279.479691166276     Delta-E=       -0.026824520015 Rises=F Damp=F
 DIIS: error= 1.06D-02 at cycle   3 NSaved=   3.
 NSaved= 3 IEnMin= 3 EnMin= -279.479691166276     IErMin= 3 ErrMin= 1.06D-02
 ErrMax= 1.06D-02  0.00D+00 EMaxC= 1.00D-01 BMatC= 2.75D-02 BMatP= 6.67D-02
 IDIUse=3 WtCom= 8.94D-01 WtEn= 1.06D-01
 Coeff-Com: -0.323D-01 0.382D+00 0.650D+00
 Coeff-En:   0.000D+00 0.244D+00 0.756D+00
 Coeff:     -0.288D-01 0.367D+00 0.662D+00
 Gap=     0.509 Goal=   None    Shift=    0.000
 RMSDP=3.70D-04 MaxDP=1.60D-02 DE=-2.68D-02 OVMax= 3.56D-02

 Cycle   4  Pass 1  IDiag  1:
 E= -279.497926495077     Delta-E=       -0.018235328801 Rises=F Damp=F
 DIIS: error= 1.33D-03 at cycle   4 NSaved=   4.
 NSaved= 4 IEnMin= 4 EnMin= -279.497926495077     IErMin= 4 ErrMin= 1.33D-03
 ErrMax= 1.33D-03  0.00D+00 EMaxC= 1.00D-01 BMatC= 5.22D-04 BMatP= 2.75D-02
 IDIUse=3 WtCom= 9.87D-01 WtEn= 1.33D-02
 Coeff-Com: -0.122D-01 0.656D-01 0.171D+00 0.776D+00
 Coeff-En:   0.000D+00 0.000D+00 0.000D+00 0.100D+01
 Coeff:     -0.120D-01 0.648D-01 0.169D+00 0.779D+00
 Gap=     0.502 Goal=   None    Shift=    0.000
 RMSDP=9.04D-05 MaxDP=2.84D-03 DE=-1.82D-02 OVMax= 1.17D-02

 Cycle   5  Pass 1  IDiag  1:
 E= -279.498630031378     Delta-E=       -0.000703536301 Rises=F Damp=F
 DIIS: error= 7.80D-04 at cycle   5 NSaved=   5.
 NSaved= 5 IEnMin= 5 EnMin= -279.498630031378     IErMin= 5 ErrMin= 7.80D-04
 ErrMax= 7.80D-04  0.00D+00 EMaxC= 1.00D-01 BMatC= 9.19D-05 BMatP= 5.22D-04
 IDIUse=3 WtCom= 9.92D-01 WtEn= 7.80D-03
 Coeff-Com:  0.631D-02-0.756D-01-0.124D+00 0.100D-01 0.118D+01
 Coeff-En:   0.000D+00 0.000D+00 0.000D+00 0.000D+00 0.100D+01
 Coeff:      0.626D-02-0.750D-01-0.123D+00 0.992D-02 0.118D+01
 Gap=     0.502 Goal=   None    Shift=    0.000
 RMSDP=7.96D-05 MaxDP=2.16D-03 DE=-7.04D-04 OVMax= 1.15D-02

 Cycle   6  Pass 1  IDiag  1:
 E= -279.498971857395     Delta-E=       -0.000341826017 Rises=F Damp=F
 DIIS: error= 2.85D-04 at cycle   6 NSaved=   6.
 NSaved= 6 IEnMin= 6 EnMin= -279.498971857395     IErMin= 6 ErrMin= 2.85D-04
 ErrMax= 2.85D-04  0.00D+00 EMaxC= 1.00D-01 BMatC= 1.75D-05 BMatP= 9.19D-05
 IDIUse=3 WtCom= 9.97D-01 WtEn= 2.85D-03
 Coeff-Com:  0.676D-03 0.832D-03 0.366D-02-0.124D+00-0.242D+00 0.136D+01
 Coeff-En:   0.000D+00 0.000D+00 0.000D+00 0.000D+00 0.000D+00 0.100D+01
 Coeff:      0.674D-03 0.830D-03 0.365D-02-0.123D+00-0.242D+00 0.136D+01
 Gap=     0.502 Goal=   None    Shift=    0.000
 RMSDP=4.76D-05 MaxDP=1.33D-03 DE=-3.42D-04 OVMax= 5.76D-03

 Cycle   7  Pass 1  IDiag  1:
 E= -279.499051466546     Delta-E=       -0.000079609151 Rises=F Damp=F
 DIIS: error= 1.41D-04 at cycle   7 NSaved=   7.
 NSaved= 7 IEnMin= 7 EnMin= -279.499051466546     IErMin= 7 ErrMin= 1.41D-04
 ErrMax= 1.41D-04  0.00D+00 EMaxC= 1.00D-01 BMatC= 5.17D-06 BMatP= 1.75D-05
 IDIUse=3 WtCom= 9.99D-01 WtEn= 1.41D-03
 Coeff-Com: -0.971D-03 0.144D-01 0.284D-01-0.243D-01-0.307D+00 0.432D+00
 Coeff-Com:  0.857D+00
 Coeff-En:   0.000D+00 0.000D+00 0.000D+00 0.000D+00 0.000D+00 0.000D+00
 Coeff-En:   0.100D+01
 Coeff:     -0.970D-03 0.144D-01 0.284D-01-0.242D-01-0.307D+00 0.432D+00
 Coeff:      0.858D+00
 Gap=     0.502 Goal=   None    Shift=    0.000
 RMSDP=1.40D-05 MaxDP=4.02D-04 DE=-7.96D-05 OVMax= 1.62D-03

 Cycle   8  Pass 1  IDiag  1:
 E= -279.499061504707     Delta-E=       -0.000010038161 Rises=F Damp=F
 DIIS: error= 5.87D-05 at cycle   8 NSaved=   8.
 NSaved= 8 IEnMin= 8 EnMin= -279.499061504707     IErMin= 8 ErrMin= 5.87D-05
 ErrMax= 5.87D-05  0.00D+00 EMaxC= 1.00D-01 BMatC= 6.64D-07 BMatP= 5.17D-06
 IDIUse=1 WtCom= 1.00D+00 WtEn= 0.00D+00
 Coeff-Com: -0.486D-03 0.381D-02 0.840D-02 0.278D-01-0.404D-01-0.203D+00
 Coeff-Com:  0.146D+00 0.106D+01
 Coeff:     -0.486D-03 0.381D-02 0.840D-02 0.278D-01-0.404D-01-0.203D+00
 Coeff:      0.146D+00 0.106D+01
 Gap=     0.502 Goal=   None    Shift=    0.000
 RMSDP=7.62D-06 MaxDP=2.16D-04 DE=-1.00D-05 OVMax= 8.61D-04

 Cycle   9  Pass 1  IDiag  1:
 E= -279.499063549271     Delta-E=       -0.000002044564 Rises=F Damp=F
 DIIS: error= 1.60D-05 at cycle   9 NSaved=   9.
 NSaved= 9 IEnMin= 9 EnMin= -279.499063549271     IErMin= 9 ErrMin= 1.60D-05
 ErrMax= 1.60D-05  0.00D+00 EMaxC= 1.00D-01 BMatC= 7.12D-08 BMatP= 6.64D-07
 IDIUse=1 WtCom= 1.00D+00 WtEn= 0.00D+00
 Coeff-Com:  0.138D-03-0.188D-02-0.341D-02-0.313D-02 0.355D-01 0.515D-02
 Coeff-Com: -0.159D+00-0.140D+00 0.127D+01
 Coeff:      0.138D-03-0.188D-02-0.341D-02-0.313D-02 0.355D-01 0.515D-02
 Coeff:     -0.159D+00-0.140D+00 0.127D+01
 Gap=     0.502 Goal=   None    Shift=    0.000
 RMSDP=2.03D-06 MaxDP=6.90D-05 DE=-2.04D-06 OVMax= 1.77D-04

 Cycle  10  Pass 1  IDiag  1:
 E= -279.499063717910     Delta-E=       -0.000000168639 Rises=F Damp=F
 DIIS: error= 4.19D-06 at cycle  10 NSaved=  10.
 NSaved=10 IEnMin=10 EnMin= -279.499063717910     IErMin=10 ErrMin= 4.19D-06
 ErrMax= 4.19D-06  0.00D+00 EMaxC= 1.00D-01 BMatC= 5.42D-09 BMatP= 7.12D-08
 IDIUse=1 WtCom= 1.00D+00 WtEn= 0.00D+00
 Coeff-Com:  0.279D-04-0.210D-03-0.256D-03-0.247D-02 0.770D-03 0.184D-01
 Coeff-Com: -0.686D-02-0.694D-01-0.962D-01 0.116D+01
 Coeff:      0.279D-04-0.210D-03-0.256D-03-0.247D-02 0.770D-03 0.184D-01
 Coeff:     -0.686D-02-0.694D-01-0.962D-01 0.116D+01
 Gap=     0.502 Goal=   None    Shift=    0.000
 RMSDP=4.97D-07 MaxDP=2.07D-05 DE=-1.69D-07 OVMax= 3.96D-05

 Cycle  11  Pass 1  IDiag  1:
 E= -279.499063729920     Delta-E=       -0.000000012010 Rises=F Damp=F
 DIIS: error= 2.02D-06 at cycle  11 NSaved=  11.
 NSaved=11 IEnMin=11 EnMin= -279.499063729920     IErMin=11 ErrMin= 2.02D-06
 ErrMax= 2.02D-06  0.00D+00 EMaxC= 1.00D-01 BMatC= 6.37D-10 BMatP= 5.42D-09
 IDIUse=1 WtCom= 1.00D+00 WtEn= 0.00D+00
 Coeff-Com: -0.214D-04 0.248D-03 0.499D-03 0.534D-03-0.410D-02-0.363D-02
 Coeff-Com:  0.189D-01 0.317D-01-0.136D+00-0.154D+00 0.125D+01
 Coeff:     -0.214D-04 0.248D-03 0.499D-03 0.534D-03-0.410D-02-0.363D-02
 Coeff:      0.189D-01 0.317D-01-0.136D+00-0.154D+00 0.125D+01
 Gap=     0.502 Goal=   None    Shift=    0.000
 RMSDP=1.69D-07 MaxDP=5.98D-06 DE=-1.20D-08 OVMax= 1.72D-05

 Cycle  12  Pass 1  IDiag  1:
 E= -279.499063731623     Delta-E=       -0.000000001704 Rises=F Damp=F
 DIIS: error= 6.11D-07 at cycle  12 NSaved=  12.
 NSaved=12 IEnMin=12 EnMin= -279.499063731623     IErMin=12 ErrMin= 6.11D-07
 ErrMax= 6.11D-07  0.00D+00 EMaxC= 1.00D-01 BMatC= 7.60D-11 BMatP= 6.37D-10
 IDIUse=1 WtCom= 1.00D+00 WtEn= 0.00D+00
 Coeff-Com:  0.148D-05-0.322D-04-0.700D-04 0.145D-03 0.115D-02-0.222D-02
 Coeff-Com: -0.416D-02 0.483D-02 0.421D-01-0.124D+00-0.267D+00 0.135D+01
 Coeff:      0.148D-05-0.322D-04-0.700D-04 0.145D-03 0.115D-02-0.222D-02
 Coeff:     -0.416D-02 0.483D-02 0.421D-01-0.124D+00-0.267D+00 0.135D+01
 Gap=     0.502 Goal=   None    Shift=    0.000
 RMSDP=7.17D-08 MaxDP=2.79D-06 DE=-1.70D-09 OVMax= 7.09D-06

 Cycle  13  Pass 1  IDiag  1:
 E= -279.499063731866     Delta-E=       -0.000000000243 Rises=F Damp=F
 DIIS: error= 1.84D-07 at cycle  13 NSaved=  13.
 NSaved=13 IEnMin=13 EnMin= -279.499063731866     IErMin=13 ErrMin= 1.84D-07
 ErrMax= 1.84D-07  0.00D+00 EMaxC= 1.00D-01 BMatC= 4.72D-12 BMatP= 7.60D-11
 IDIUse=1 WtCom= 1.00D+00 WtEn= 0.00D+00
 Coeff-Com:  0.135D-05-0.147D-04-0.235D-04-0.898D-04 0.106D-03 0.812D-03
 Coeff-Com: -0.703D-03-0.350D-02 0.441D-03 0.450D-01-0.410D-01-0.351D+00
 Coeff-Com:  0.135D+01
 Coeff:      0.135D-05-0.147D-04-0.235D-04-0.898D-04 0.106D-03 0.812D-03
 Coeff:     -0.703D-03-0.350D-02 0.441D-03 0.450D-01-0.410D-01-0.351D+00
 Coeff:      0.135D+01
 Gap=     0.502 Goal=   None    Shift=    0.000
 RMSDP=2.06D-08 MaxDP=6.41D-07 DE=-2.43D-10 OVMax= 1.87D-06

 Cycle  14  Pass 1  IDiag  1:
 E= -279.499063731882     Delta-E=       -0.000000000016 Rises=F Damp=F
 DIIS: error= 2.82D-08 at cycle  14 NSaved=  14.
 NSaved=14 IEnMin=14 EnMin= -279.499063731882     IErMin=14 ErrMin= 2.82D-08
 ErrMax= 2.82D-08  0.00D+00 EMaxC= 1.00D-01 BMatC= 2.39D-13 BMatP= 4.72D-12
 IDIUse=1 WtCom= 1.00D+00 WtEn= 0.00D+00
 Coeff-Com: -0.227D-06 0.364D-05 0.664D-05 0.647D-05-0.902D-04 0.415D-04
 Coeff-Com:  0.278D-03 0.302D-03-0.264D-02 0.177D-02 0.181D-01-0.246D-01
 Coeff-Com: -0.214D+00 0.122D+01
 Coeff:     -0.227D-06 0.364D-05 0.664D-05 0.647D-05-0.902D-04 0.415D-04
 Coeff:      0.278D-03 0.302D-03-0.264D-02 0.177D-02 0.181D-01-0.246D-01
 Coeff:     -0.214D+00 0.122D+01
 Gap=     0.502 Goal=   None    Shift=    0.000
 RMSDP=4.17D-09 MaxDP=1.06D-07 DE=-1.59D-11 OVMax= 3.85D-07

 SCF Done:  E(RHF) =  -279.499063732     A.U. after   14 cycles
            NFock= 14  Conv=0.42D-08     -V/T= 2.0025
 KE= 2.788054376153D+02 PE=-8.936871228786D+02 EE= 2.191990910494D+02
 Leave Link  502 at Mon Feb 14 13:07:48 2022, MaxMem= 16106127360 cpu:              51.4 elap:               3.3
 (Enter /sw/contrib/gaussian/g16/B01/g16/l801.exe)
 ExpMin= 2.53D-02 ExpMax= 1.53D+04 ExpMxC= 5.22D+02 IAcc=3 IRadAn=         5 AccDes= 0.00D+00
 HarFok:  IExCor=  205 AccDes= 0.00D+00 IRadAn=         5 IDoV=-2 UseB2=F ITyADJ=14
 ICtDFT= 12500011 ScaDFX=  1.000000  1.000000  1.000000  1.000000
 Largest valence mixing into a core orbital is  2.09D-04
 Largest core mixing into a valence orbital is  3.71D-05
 Range of M.O.s used for correlation:     5   207
 NBasis=   207 NAE=    16 NBE=    16 NFC=     4 NFV=     0
 NROrb=    203 NOA=    12 NOB=    12 NVA=   191 NVB=   191

 **** Warning!!: The largest alpha MO coefficient is  0.17221399D+02

 Leave Link  801 at Mon Feb 14 13:07:48 2022, MaxMem= 16106127360 cpu:               2.1 elap:               0.1
 (Enter /sw/contrib/gaussian/g16/B01/g16/l906.exe)
 Frozen-core derivative calculation, NFC=   4 NFV=   0.
 FulOut=F Deriv=T AODrv=F NAtomX=     5
   MMem=          76  MDisk=          12 MDiskD=          12
  W3Min=      811440 MinDsk=     1524655 NBas6D=         245
 NBas2D=       30762    NTT=       30135    LW2=     3500000
    MDV= 16105580011 MDiskM=      328644 NBas2p=       30466
 Fully in-core method, ICMem=   960157634.
 IMap=   1   2   3   4   5   6   7   8   9  10  11  12  13  14  15  16
 JobTyp=1 Pass  1 fully in-core, NPsUse= 28.
 Compute canonical integrals.
 FoFCou: FMM=F IPFlag=           0 FMFlag=           0 FMFlg1=           0
         NFxFlg=           0 DoJE=F BraDBF=F KetDBF=F FulRan=T
         wScrn=  0.000000 ICntrl=       600 IOpCl=  1 I1Cent=           0 NGrid=           0
         NMat0=    1 NMatS0=  30762 NMatT0=    0 NMatD0=    1 NMtDS0=    0 NMtDT0=    0
 Symmetry not used in FoFCou.
 Spin components of T(2) and E(2):
     alpha-alpha T2 =       0.3433373576D-01 E2=     -0.1227008988D+00
     alpha-beta  T2 =       0.1886719972D+00 E2=     -0.7021366969D+00
     beta-beta   T2 =       0.3433373576D-01 E2=     -0.1227008988D+00
 The integrals were generated   1 times.
 ANorm=    0.1121311495D+01
 E2 =    -0.9475384945D+00 EUMP2 =    -0.28044660222639D+03
 Leave Link  906 at Mon Feb 14 13:07:57 2022, MaxMem= 16106127360 cpu:             243.6 elap:               8.7
 (Enter /sw/contrib/gaussian/g16/B01/g16/l1002.exe)
 Minotr:  Closed shell wavefunction.
          Computing MP2/KS-MP2 derivatives.
          Using Z-Vector for PSCF gradient.
          Skipping F1 and S1 gradient terms here.
          Frozen-core window.
          Direct CPHF calculation.
          Differentiating once with respect to electric field.
                with respect to dipole field.
          Electric field/nuclear overlap derivatives assumed to be zero.
          Using symmetry in CPHF.
          Requested convergence is 1.0D-10 RMS, and 1.0D-09 maximum.
          NewPWx=F KeepS1=T KeepF1=T KeepIn=T MapXYZ=F SortEE=F KeepMc=T.
 Keep R1 ints in memory in symmetry-blocked form, NReq=348888868.
 FoFCou: FMM=F IPFlag=           0 FMFlag=           0 FMFlg1=           0
         NFxFlg=           0 DoJE=F BraDBF=F KetDBF=F FulRan=T
         wScrn=  0.000000 ICntrl=       600 IOpCl=  0 I1Cent=           0 NGrid=           0
         NMat0=    1 NMatS0=  21528 NMatT0=    0 NMatD0=    1 NMtDS0=    0 NMtDT0=    0
 Petite list used in FoFCou.
          MDV=   16106127360 using IRadAn=       5.
          Solving linear equations separately, MaxMat=       0.
          There are     1 degrees of freedom in the 1st order CPHF.  IDoFFX=0 NUNeed=     1.
 LinEq1:  Iter=  0 NonCon=     1 RMS=6.05D-03 Max=1.32D-01 NDo=     1
 AX will form     1 AO Fock derivatives at one time.
 LinEq1:  Iter=  1 NonCon=     1 RMS=1.98D-03 Max=4.00D-02 NDo=     1
 LinEq1:  Iter=  2 NonCon=     1 RMS=9.06D-04 Max=1.46D-02 NDo=     1
 LinEq1:  Iter=  3 NonCon=     1 RMS=4.05D-04 Max=7.83D-03 NDo=     1
 LinEq1:  Iter=  4 NonCon=     1 RMS=1.25D-04 Max=1.89D-03 NDo=     1
 LinEq1:  Iter=  5 NonCon=     1 RMS=4.73D-05 Max=7.47D-04 NDo=     1
 LinEq1:  Iter=  6 NonCon=     1 RMS=2.10D-05 Max=2.43D-04 NDo=     1
 LinEq1:  Iter=  7 NonCon=     1 RMS=8.59D-06 Max=1.75D-04 NDo=     1
 LinEq1:  Iter=  8 NonCon=     1 RMS=3.63D-06 Max=3.76D-05 NDo=     1
 LinEq1:  Iter=  9 NonCon=     1 RMS=9.91D-07 Max=1.49D-05 NDo=     1
 LinEq1:  Iter= 10 NonCon=     1 RMS=2.01D-07 Max=2.26D-06 NDo=     1
 LinEq1:  Iter= 11 NonCon=     1 RMS=3.82D-08 Max=4.46D-07 NDo=     1
 LinEq1:  Iter= 12 NonCon=     1 RMS=9.21D-09 Max=1.42D-07 NDo=     1
 LinEq1:  Iter= 13 NonCon=     1 RMS=1.63D-09 Max=2.92D-08 NDo=     1
 LinEq1:  Iter= 14 NonCon=     1 RMS=3.00D-10 Max=4.48D-09 NDo=     1
 LinEq1:  Iter= 15 NonCon=     0 RMS=5.40D-11 Max=6.39D-10 NDo=     1
 Linear equations converged to 1.000D-10 1.000D-09 after    15 iterations.
 End of Minotr F.D. properties file   721 does not exist.
 End of Minotr F.D. properties file   722 does not exist.
 End of Minotr F.D. properties file   788 does not exist.
 Leave Link 1002 at Mon Feb 14 13:08:01 2022, MaxMem= 16106127360 cpu:              52.6 elap:               3.9
 (Enter /sw/contrib/gaussian/g16/B01/g16/l601.exe)
 Copying SCF densities to generalized density rwf, IOpCl= 0 IROHF=0.

 **********************************************************************

            Population analysis using the MP2 Density.

 **********************************************************************

 Orbital symmetries:
       Occupied  (A') (A') (A') (A') (A') (A') (A') (A') (A') (A')
                 (A") (A') (A") (A') (A") (A')
       Virtual   (A') (A") (A') (A') (A") (A') (A') (A') (A") (A')
                 (A") (A') (A') (A') (A") (A') (A') (A") (A') (A')
                 (A') (A') (A') (A') (A") (A') (A') (A") (A') (A')
                 (A") (A') (A") (A') (A') (A") (A') (A') (A") (A')
                 (A") (A') (A") (A') (A') (A") (A') (A') (A") (A')
                 (A") (A') (A') (A') (A") (A') (A") (A') (A") (A')
                 (A') (A') (A") (A') (A') (A") (A') (A") (A') (A')
                 (A") (A') (A') (A") (A") (A') (A') (A") (A') (A')
                 (A') (A") (A') (A") (A') (A") (A') (A") (A') (A')
                 (A") (A') (A') (A") (A') (A") (A') (A") (A') (A')
                 (A") (A') (A") (A') (A') (A") (A') (A') (A") (A')
                 (A") (A') (A') (A') (A") (A') (A') (A') (A") (A')
                 (A") (A') (A") (A') (A') (A") (A") (A') (A") (A')
                 (A') (A') (A') (A") (A") (A") (A') (A') (A') (A')
                 (A") (A') (A") (A') (A') (A") (A') (A') (A') (A')
                 (A") (A') (A') (A") (A') (A") (A') (A") (A') (A")
                 (A') (A") (A') (A') (A") (A") (A") (A') (A") (A')
                 (A") (A') (A") (A') (A") (A') (A") (A') (A") (A')
                 (A') (A') (A') (A') (A') (A') (A') (A') (A') (A')
                 (A')
 The electronic state is 1-A'.
 Alpha  occ. eigenvalues --  -20.69033 -20.68656 -20.65685 -15.81696  -1.62320
 Alpha  occ. eigenvalues --   -1.49199  -1.24679  -0.95014  -0.77079  -0.75636
 Alpha  occ. eigenvalues --   -0.70772  -0.68066  -0.62167  -0.58803  -0.48249
 Alpha  occ. eigenvalues --   -0.47123
 Alpha virt. eigenvalues --    0.03033   0.06839   0.08545   0.10141   0.13381
 Alpha virt. eigenvalues --    0.13412   0.14461   0.15504   0.17882   0.19403
 Alpha virt. eigenvalues --    0.19968   0.20254   0.22147   0.23651   0.23709
 Alpha virt. eigenvalues --    0.26530   0.28374   0.30444   0.30975   0.34154
 Alpha virt. eigenvalues --    0.34887   0.38691   0.42292   0.43253   0.52606
 Alpha virt. eigenvalues --    0.52812   0.55575   0.58024   0.62407   0.63682
 Alpha virt. eigenvalues --    0.67351   0.68450   0.70722   0.71167   0.72442
 Alpha virt. eigenvalues --    0.73120   0.74563   0.78996   0.79297   0.80931
 Alpha virt. eigenvalues --    0.81455   0.82945   0.86628   0.90819   0.92291
 Alpha virt. eigenvalues --    0.92444   0.95901   0.97395   0.98568   1.01865
 Alpha virt. eigenvalues --    1.05096   1.05347   1.08009   1.11569   1.13872
 Alpha virt. eigenvalues --    1.18818   1.21998   1.23205   1.33601   1.34564
 Alpha virt. eigenvalues --    1.38888   1.44949   1.48761   1.50987   1.53632
 Alpha virt. eigenvalues --    1.56381   1.57506   1.61197   1.66201   1.66965
 Alpha virt. eigenvalues --    1.70079   1.79293   1.82991   1.83037   1.87902
 Alpha virt. eigenvalues --    1.90697   1.95579   1.98708   2.00250   2.06988
 Alpha virt. eigenvalues --    2.11794   2.12849   2.15306   2.21947   2.26202
 Alpha virt. eigenvalues --    2.26671   2.28712   2.31365   2.33780   2.38606
 Alpha virt. eigenvalues --    2.42053   2.42284   2.45171   2.46019   2.47229
 Alpha virt. eigenvalues --    2.49749   2.59183   2.59472   2.61478   2.62247
 Alpha virt. eigenvalues --    2.63665   2.66511   2.75328   2.81227   2.84424
 Alpha virt. eigenvalues --    2.87490   2.89562   2.90283   2.95667   3.01601
 Alpha virt. eigenvalues --    3.05753   3.11477   3.20594   3.22413   3.31228
 Alpha virt. eigenvalues --    3.33485   3.51278   3.63405   3.82625   3.83896
 Alpha virt. eigenvalues --    4.14835   4.16974   4.18080   4.24679   4.35189
 Alpha virt. eigenvalues --    4.39282   4.46512   4.51587   4.65272   4.70638
 Alpha virt. eigenvalues --    4.79793   4.80919   4.83220   4.89294   5.01463
 Alpha virt. eigenvalues --    5.07003   5.09223   5.14570   5.17149   5.23638
 Alpha virt. eigenvalues --    5.26285   5.30309   5.32824   5.34460   5.59806
 Alpha virt. eigenvalues --    5.66894   5.75363   5.83084   5.94503   6.15750
 Alpha virt. eigenvalues --    6.30850   6.32811   6.39095   6.48745   6.50005
 Alpha virt. eigenvalues --    6.61278   6.66903   6.69213   6.76153   6.76350
 Alpha virt. eigenvalues --    6.82479   6.89051   7.00760   7.05294   7.05939
 Alpha virt. eigenvalues --    7.09044   7.11674   7.14285   7.18063   7.21221
 Alpha virt. eigenvalues --    7.24321   7.31210   7.32106   7.33958   7.39157
 Alpha virt. eigenvalues --    7.41863   7.47782   7.60004   7.60378   7.61317
 Alpha virt. eigenvalues --    7.65408   7.77906   7.88104   8.06393   8.30279
 Alpha virt. eigenvalues --    8.40867   8.53246  13.34149  14.26085  15.14164
 Alpha virt. eigenvalues --   16.10527
          Condensed to atoms (all electrons):
               1          2          3          4          5
     1  H    0.590026   0.128551   0.019870   0.012218  -0.000670
     2  O    0.128551   8.321873  -0.175695  -0.086254   0.014868
     3  O    0.019870  -0.175695   8.476116  -0.122362  -0.034310
     4  N    0.012218  -0.086254  -0.122362   6.949275  -0.051943
     5  O   -0.000670   0.014868  -0.034310  -0.051943   8.254165
 Mulliken charges:
               1
     1  H    0.250006
     2  O   -0.203342
     3  O   -0.163620
     4  N    0.299067
     5  O   -0.182110
 Sum of Mulliken charges =  -0.00000
 Mulliken charges with hydrogens summed into heavy atoms:
               1
     2  O    0.046663
     3  O   -0.163620
     4  N    0.299067
     5  O   -0.182110
 Electronic spatial extent (au):  <R**2>=            255.5669
 Charge=             -0.0000 electrons
 Dipole moment (field-independent basis, Debye):
    X=              0.3931    Y=              1.2120    Z=             -0.0000  Tot=              1.2742
 Quadrupole moment (field-independent basis, Debye-Ang):
   XX=            -22.4255   YY=            -18.5062   ZZ=            -22.0468
   XY=              3.3041   XZ=              0.0000   YZ=              0.0000
 Traceless Quadrupole moment (field-independent basis, Debye-Ang):
   XX=             -1.4327   YY=              2.4866   ZZ=             -1.0539
   XY=              3.3041   XZ=              0.0000   YZ=              0.0000
 Octapole moment (field-independent basis, Debye-Ang**2):
  XXX=              2.3638  YYY=             11.2417  ZZZ=              0.0000  XYY=              7.8647
  XXY=              6.3670  XXZ=             -0.0000  XZZ=             -1.6203  YZZ=             -0.9529
  YYZ=             -0.0000  XYZ=             -0.0000
 Hexadecapole moment (field-independent basis, Debye-Ang**3):
 XXXX=           -158.3317 YYYY=            -92.2520 ZZZZ=            -18.3192 XXXY=            -37.5080
 XXXZ=              0.0000 YYYX=            -31.1396 YYYZ=              0.0000 ZZZX=              0.0000
 ZZZY=              0.0000 XXYY=            -34.2781 XXZZ=            -30.8591 YYZZ=            -21.2159
 XXYZ=              0.0000 YYXZ=              0.0000 ZZXY=            -15.3335
 N-N= 1.161835304819D+02 E-N=-8.944916066174D+02  KE= 2.801673047971D+02
 Symmetry A'   KE= 2.662042782172D+02
 Symmetry A"   KE= 1.396302657988D+01
 No NMR shielding tensors so no spin-rotation constants.
 Leave Link  601 at Mon Feb 14 13:08:01 2022, MaxMem= 16106127360 cpu:               5.0 elap:               0.2
 (Enter /sw/contrib/gaussian/g16/B01/g16/l9999.exe)
 1\1\GINC-N2228\SP\RMP2-FC\Aug-CC-pVTZ\H1N1O3\CGAVINH\14-Feb-2022\0\\#p
  SP mp2/aug-cc-pvtz density=current\\title\\0,1\H\O,1,0.96897556\O,2,1
 .45491931,1,97.59494903\N,3,1.4843407211,2,102.29752444,1,180.,0\O,4,1
 .17072885,3,109.06955123,2,180.,0\\Version=ES64L-G16RevB.01\State=1-A'
 \HF=-279.4990637\MP2=-280.4466022\RMSD=4.173e-09\Dipole=-0.1086586,0.,
 -0.489373\Quadrupole=-1.5033688,-0.7835844,2.2869532,0.,2.1366955,0.\P
 G=CS [SG(H1N1O3)]\\@


 IN THE UNIVERSE THE DIFFICULT THINGS ARE DONE AS IF THEY WERE EASY.

                                                          -- LAO-TSU
 Job cpu time:       0 days  0 hours  6 minutes 14.6 seconds.
 Elapsed time:       0 days  0 hours  0 minutes 17.2 seconds.
 File lengths (MBytes):  RWF=     22 Int=      0 D2E=      0 Chk=      8 Scr=      1
 Normal termination of Gaussian 16 at Mon Feb 14 13:08:01 2022.
