 Entering Gaussian System, Link 0=g16
 Input=hoono_eq_anharm.gjf
 Output=hoono_eq_anharm.log
 Initial command:
 /sw/contrib/gaussian/g16/B01/g16/l1.exe "/scr/Gau-247941.inp" -scrdir="/scr/"
 Entering Link 1 = /sw/contrib/gaussian/g16/B01/g16/l1.exe PID=    247943.
  
 Copyright (c) 1988-2017, Gaussian, Inc.  All Rights Reserved.
  
 This is part of the Gaussian(R) 16 program.  It is based on
 the Gaussian(R) 09 system (copyright 2009, Gaussian, Inc.),
 the Gaussian(R) 03 system (copyright 2003, Gaussian, Inc.),
 the Gaussian(R) 98 system (copyright 1998, Gaussian, Inc.),
 the Gaussian(R) 94 system (copyright 1995, Gaussian, Inc.),
 the Gaussian 92(TM) system (copyright 1992, Gaussian, Inc.),
 the Gaussian 90(TM) system (copyright 1990, Gaussian, Inc.),
 the Gaussian 88(TM) system (copyright 1988, Gaussian, Inc.),
 the Gaussian 86(TM) system (copyright 1986, Carnegie Mellon
 University), and the Gaussian 82(TM) system (copyright 1983,
 Carnegie Mellon University). Gaussian is a federally registered
 trademark of Gaussian, Inc.
  
 This software contains proprietary and confidential information,
 including trade secrets, belonging to Gaussian, Inc.
  
 This software is provided under written license and may be
 used, copied, transmitted, or stored only in accord with that
 written license.
  
 The following legend is applicable only to US Government
 contracts under FAR:
  
                    RESTRICTED RIGHTS LEGEND
  
 Use, reproduction and disclosure by the US Government is
 subject to restrictions as set forth in subparagraphs (a)
 and (c) of the Commercial Computer Software - Restricted
 Rights clause in FAR 52.227-19.
  
 Gaussian, Inc.
 340 Quinnipiac St., Bldg. 40, Wallingford CT 06492
  
  
 ---------------------------------------------------------------
 Warning -- This program may not be used in any manner that
 competes with the business of Gaussian, Inc. or will provide
 assistance to any competitor of Gaussian, Inc.  The licensee
 of this program is prohibited from giving any competitor of
 Gaussian, Inc. access to this program.  By using this program,
 the user acknowledges that Gaussian, Inc. is engaged in the
 business of creating and licensing software in the field of
 computational chemistry and represents and warrants to the
 licensee that it is not a competitor of Gaussian, Inc. and that
 it will not use this program in any manner prohibited above.
 ---------------------------------------------------------------
  

 Cite this work as:
 Gaussian 16, Revision B.01,
 M. J. Frisch, G. W. Trucks, H. B. Schlegel, G. E. Scuseria, 
 M. A. Robb, J. R. Cheeseman, G. Scalmani, V. Barone, 
 G. A. Petersson, H. Nakatsuji, X. Li, M. Caricato, A. V. Marenich, 
 J. Bloino, B. G. Janesko, R. Gomperts, B. Mennucci, H. P. Hratchian, 
 J. V. Ortiz, A. F. Izmaylov, J. L. Sonnenberg, D. Williams-Young, 
 F. Ding, F. Lipparini, F. Egidi, J. Goings, B. Peng, A. Petrone, 
 T. Henderson, D. Ranasinghe, V. G. Zakrzewski, J. Gao, N. Rega, 
 G. Zheng, W. Liang, M. Hada, M. Ehara, K. Toyota, R. Fukuda, 
 J. Hasegawa, M. Ishida, T. Nakajima, Y. Honda, O. Kitao, H. Nakai, 
 T. Vreven, K. Throssell, J. A. Montgomery, Jr., J. E. Peralta, 
 F. Ogliaro, M. J. Bearpark, J. J. Heyd, E. N. Brothers, K. N. Kudin, 
 V. N. Staroverov, T. A. Keith, R. Kobayashi, J. Normand, 
 K. Raghavachari, A. P. Rendell, J. C. Burant, S. S. Iyengar, 
 J. Tomasi, M. Cossi, J. M. Millam, M. Klene, C. Adamo, R. Cammi, 
 J. W. Ochterski, R. L. Martin, K. Morokuma, O. Farkas, 
 J. B. Foresman, and D. J. Fox, Gaussian, Inc., Wallingford CT, 2016.
 
 ******************************************
 Gaussian 16:  ES64L-G16RevB.01 20-Dec-2017
                28-Feb-2022 
 ******************************************
 %nproc=28
 Will use up to   28 processors via shared memory.
 %mem=120GB
 %chk=hoono_eq_anharm.chk
 ----------------------------------------------
 #p freq=anharm mp2/aug-cc-pvtz density=current
 ----------------------------------------------
 1/10=4,30=1,38=21,80=1/1,6,3;
 2/12=2,17=6,18=5,40=1/2;
 3/5=16,6=1,7=10,11=9,25=1,30=1,71=2,140=1/1,2,3;
 4/69=2/1;
 5/5=2,38=5,98=1/2;
 8/6=3,8=1,10=1,19=11,30=-1/1;
 9/15=3,16=-3/6;
 11/6=1,8=1,15=11,17=12,24=-1,27=1,28=-2,29=300,32=6,42=3/1,2,10;
 10/6=2,21=1,60=-2/2;
 8/6=4,8=1,10=1,19=11,30=-1/11,4;
 10/5=1,20=4,60=-2/2;
 11/12=2,14=11,16=1,17=2,28=-2,42=3,76=2/2,10,12;
 6/7=2,8=2,9=2,10=2,22=-1/1;
 7/10=1,12=2,25=1,44=2,71=2/1,2,3,16;
 1/38=20,80=1/6(3);
 7/8=1,25=202,44=-1,71=1,92=10/16,17;
 1/10=4,30=1,38=20,80=1/3;
 99//99;
 3/5=16,6=1,7=10,11=9,25=1,30=1,71=2,140=1/1,2,3;
 4/5=5,16=3,69=2/1;
 5/5=2,38=5,98=1/2;
 8/6=3,8=1,10=1,19=11,30=-1/1;
 9/15=3,16=-3/6;
 11/6=1,8=1,15=11,17=12,24=-1,27=1,28=-2,29=300,32=6,42=3/1,2,10;
 10/6=2,21=1,60=-2/2;
 8/6=4,8=1,10=1,19=11,30=-1/11,4;
 10/5=1,20=4,60=-2/2;
 11/12=2,14=11,16=1,17=2,28=-2,42=3,76=2/2,10,12;
 6/7=2,8=2,9=2,10=2,22=-1/1;
 7/7=1,10=1,12=2,25=1,44=2,71=1/1,2,3,16;
 1/38=20,80=1/6(-12);
 7/8=1,25=202,44=-1,71=1,92=10/16,17;
 1/10=4,30=1,38=20,80=1/3;
 99//99;
 Leave Link    1 at Mon Feb 28 01:12:13 2022, MaxMem= 16106127360 cpu:               2.1 elap:               0.1
 (Enter /sw/contrib/gaussian/g16/B01/g16/l101.exe)
 -----
 title
 -----
 Symbolic Z-matrix:
 Charge =  0 Multiplicity = 1
 H
 O                    1    r1
 O                    2    r2       1    a1
 N                    3    r3       2    a2       1    d1       0
 O                    4    r4       3    a3       2    d2       0
       Variables:
  r1                    0.96898                  
  r2                    1.45492                  
  r3                    1.45878                  
  r4                    1.17073                  
  a1                   97.59495                  
  a2                  102.29752                  
  a3                  109.06955                  
  d1                  180.                       
  d2                  180.                       
 
 ITRead=  0  0  0  0  0
 MicOpt= -1 -1 -1 -1 -1
 NAtoms=      5 NQM=        5 NQMF=       0 NMMI=      0 NMMIF=      0
                NMic=       0 NMicF=      0.
                    Isotopes and Nuclear Properties:
 (Nuclear quadrupole moments (NQMom) in fm**2, nuclear magnetic moments (NMagM)
  in nuclear magnetons)

  Atom         1           2           3           4           5
 IAtWgt=           1          16          16          14          16
 AtmWgt=   1.0078250  15.9949146  15.9949146  14.0030740  15.9949146
 NucSpn=           1           0           0           2           0
 AtZEff=  -0.0000000  -0.0000000  -0.0000000  -0.0000000  -0.0000000
 NQMom=    0.0000000   0.0000000   0.0000000   2.0440000   0.0000000
 NMagM=    2.7928460   0.0000000   0.0000000   0.4037610   0.0000000
 AtZNuc=   1.0000000   8.0000000   8.0000000   7.0000000   8.0000000
 Leave Link  101 at Mon Feb 28 01:12:13 2022, MaxMem= 16106127360 cpu:               2.9 elap:               0.1
 (Enter /sw/contrib/gaussian/g16/B01/g16/l106.exe)
 Numerical evaluation of third derivatives.
 Nuclear step= 0.010000 Angstroms, electric field step= 0.000333 atomic units, NStep=1.
 Leave Link  106 at Mon Feb 28 01:12:13 2022, MaxMem= 16106127360 cpu:               0.9 elap:               0.1
 (Enter /sw/contrib/gaussian/g16/B01/g16/l103.exe)

 GradGradGradGradGradGradGradGradGradGradGradGradGradGradGradGradGradGrad
 Berny optimization.
 Initialization pass.
                       ----------------------------
                       !    Initial Parameters    !
                       ! (Angstroms and Degrees)  !
 ----------------------                            ----------------------
 !      Name          Value   Derivative information (Atomic Units)     !
 ------------------------------------------------------------------------
 !       r1          0.969    calculate D2E/DX2 analytically            !
 !       r2          1.4549   calculate D2E/DX2 analytically            !
 !       r3          1.4588   calculate D2E/DX2 analytically            !
 !       r4          1.1707   calculate D2E/DX2 analytically            !
 !       a1         97.5949   calculate D2E/DX2 analytically            !
 !       a2        102.2975   calculate D2E/DX2 analytically            !
 !       a3        109.0696   calculate D2E/DX2 analytically            !
 !       d1        180.0      calculate D2E/DX2 analytically            !
 !       d2        180.0      calculate D2E/DX2 analytically            !
 ------------------------------------------------------------------------
 Trust Radius=3.00D-01 FncErr=1.00D-07 GrdErr=1.00D-07 EigMax=2.50D+02 EigMin=1.00D-04
 Number of steps in this run=      2 maximum allowed number of steps=      2.
 GradGradGradGradGradGradGradGradGradGradGradGradGradGradGradGradGradGrad

 Leave Link  103 at Mon Feb 28 01:12:13 2022, MaxMem= 16106127360 cpu:               0.5 elap:               0.0
 (Enter /sw/contrib/gaussian/g16/B01/g16/l202.exe)
                          Input orientation:                          
 ---------------------------------------------------------------------
 Center     Atomic      Atomic             Coordinates (Angstroms)
 Number     Number       Type             X           Y           Z
 ---------------------------------------------------------------------
      1          1           0        0.000000    0.000000    0.000000
      2          8           0        0.000000    0.000000    0.968976
      3          8           0        1.442156    0.000000    1.161271
      4          7           0        1.561752    0.000000    2.615144
      5          8           0        2.695867    0.000000    2.905639
 ---------------------------------------------------------------------
                    Distance matrix (angstroms):
                    1          2          3          4          5
     1  H    0.000000
     2  O    0.968976   0.000000
     3  O    1.851584   1.454919   0.000000
     4  N    3.045989   2.269127   1.458784   0.000000
     5  O    3.963640   3.319392   2.148165   1.170729   0.000000
 Stoichiometry    HNO3
 Framework group  CS[SG(HNO3)]
 Deg. of freedom     7
 Full point group                 CS      NOp   2
 Largest Abelian subgroup         CS      NOp   2
 Largest concise Abelian subgroup C1      NOp   1
                         Standard orientation:                         
 ---------------------------------------------------------------------
 Center     Atomic      Atomic             Coordinates (Angstroms)
 Number     Number       Type             X           Y           Z
 ---------------------------------------------------------------------
      1          1           0        1.549112    1.687216    0.000000
      2          8           0        1.454063    0.722913    0.000000
      3          8           0        0.000000    0.673009    0.000000
      4          7           0       -0.261632   -0.762121   -0.000000
      5          8           0       -1.418774   -0.939968   -0.000000
 ---------------------------------------------------------------------
 Rotational constants (GHZ):          54.9550217           5.0111293           4.5923695
 Leave Link  202 at Mon Feb 28 01:12:13 2022, MaxMem= 16106127360 cpu:               0.5 elap:               0.0
 (Enter /sw/contrib/gaussian/g16/B01/g16/l301.exe)
 Standard basis: Aug-CC-pVTZ (5D, 7F)
 Ernie: Thresh=  0.10000D-02 Tol=  0.10000D-05 Strict=F.
 Ernie:  12 primitive shells out of 131 were deleted.
 There are   166 symmetry adapted cartesian basis functions of A'  symmetry.
 There are    79 symmetry adapted cartesian basis functions of A"  symmetry.
 There are   136 symmetry adapted basis functions of A'  symmetry.
 There are    71 symmetry adapted basis functions of A"  symmetry.
   207 basis functions,   315 primitive gaussians,   245 cartesian basis functions
    16 alpha electrons       16 beta electrons
       nuclear repulsion energy       116.8720115349 Hartrees.
 IExCor=    0 DFT=F Ex=HF Corr=None ExCW=0 ScaHFX=  1.000000
 ScaDFX=  1.000000  1.000000  1.000000  1.000000 ScalE2=  1.000000  1.000000
 IRadAn=      5 IRanWt=     -1 IRanGd=            0 ICorTp=0 IEmpDi=  4
 NAtoms=    5 NActive=    5 NUniq=    5 SFac= 1.00D+00 NAtFMM=   60 NAOKFM=F Big=F
 Integral buffers will be    131072 words long.
 Raffenetti 1 integral format.
 Two-electron integral symmetry is turned on.
 Leave Link  301 at Mon Feb 28 01:12:13 2022, MaxMem= 16106127360 cpu:               3.0 elap:               0.1
 (Enter /sw/contrib/gaussian/g16/B01/g16/l302.exe)
 NPDir=0 NMtPBC=     1 NCelOv=     1 NCel=       1 NClECP=     1 NCelD=      1
         NCelK=      1 NCelE2=     1 NClLst=     1 CellRange=     0.0.
 One-electron integrals computed using PRISM.
 One-electron integral symmetry used in STVInt
 NBasis=   207 RedAO= T EigKep=  1.82D-04  NBF=   136    71
 NBsUse=   207 1.00D-06 EigRej= -1.00D+00 NBFU=   136    71
 Leave Link  302 at Mon Feb 28 01:12:14 2022, MaxMem= 16106127360 cpu:               3.8 elap:               0.2
 (Enter /sw/contrib/gaussian/g16/B01/g16/l303.exe)
 DipDrv:  MaxL=1.
 Leave Link  303 at Mon Feb 28 01:12:14 2022, MaxMem= 16106127360 cpu:               0.7 elap:               0.0
 (Enter /sw/contrib/gaussian/g16/B01/g16/l401.exe)
 ExpMin= 2.53D-02 ExpMax= 1.53D+04 ExpMxC= 5.22D+02 IAcc=3 IRadAn=         5 AccDes= 0.00D+00
 Harris functional with IExCor=  205 and IRadAn=       5 diagonalized for initial guess.
 HarFok:  IExCor=  205 AccDes= 0.00D+00 IRadAn=         5 IDoV= 1 UseB2=F ITyADJ=14
 ICtDFT=  3500011 ScaDFX=  1.000000  1.000000  1.000000  1.000000
 FoFCou: FMM=F IPFlag=           0 FMFlag=      100000 FMFlg1=           0
         NFxFlg=           0 DoJE=T BraDBF=F KetDBF=T FulRan=T
         wScrn=  0.000000 ICntrl=       500 IOpCl=  0 I1Cent=   200000004 NGrid=           0
         NMat0=    1 NMatS0=      1 NMatT0=    0 NMatD0=    1 NMtDS0=    0 NMtDT0=    0
 Petite list used in FoFCou.
 Harris En= -279.628703822333    
 JPrj=0 DoOrth=F DoCkMO=F.
 Initial guess orbital symmetries:
       Occupied  (A') (A') (A') (A') (A') (A') (A') (A') (A') (A')
                 (A") (A') (A') (A") (A") (A')
       Virtual   (A") (A') (A') (A') (A') (A') (A") (A') (A') (A')
                 (A") (A') (A") (A') (A') (A") (A') (A") (A') (A')
                 (A') (A') (A') (A') (A') (A") (A') (A") (A') (A')
                 (A") (A') (A") (A') (A') (A") (A') (A") (A') (A')
                 (A") (A') (A") (A') (A") (A') (A') (A') (A") (A")
                 (A') (A') (A') (A') (A") (A') (A") (A') (A") (A')
                 (A') (A') (A") (A') (A') (A") (A') (A") (A') (A')
                 (A") (A') (A') (A") (A") (A') (A') (A") (A') (A')
                 (A') (A") (A') (A") (A') (A") (A') (A") (A') (A')
                 (A') (A") (A') (A") (A') (A") (A") (A') (A') (A")
                 (A') (A') (A") (A') (A') (A') (A') (A") (A") (A')
                 (A") (A') (A') (A') (A") (A') (A') (A') (A") (A')
                 (A") (A') (A') (A") (A") (A') (A') (A") (A") (A')
                 (A') (A') (A') (A") (A") (A') (A") (A') (A') (A')
                 (A') (A") (A") (A') (A') (A") (A') (A') (A') (A')
                 (A") (A') (A') (A") (A') (A") (A') (A") (A') (A")
                 (A') (A") (A') (A") (A') (A") (A") (A") (A') (A')
                 (A") (A') (A") (A') (A") (A') (A") (A") (A') (A')
                 (A') (A') (A') (A') (A') (A') (A') (A') (A') (A')
                 (A')
 The electronic state of the initial guess is 1-A'.
 Leave Link  401 at Mon Feb 28 01:12:14 2022, MaxMem= 16106127360 cpu:               6.7 elap:               0.3
 (Enter /sw/contrib/gaussian/g16/B01/g16/l502.exe)
 Keep R1 ints in memory in symmetry-blocked form, NReq=348887737.
 FoFCou: FMM=F IPFlag=           0 FMFlag=           0 FMFlg1=           0
         NFxFlg=           0 DoJE=F BraDBF=F KetDBF=F FulRan=T
         wScrn=  0.000000 ICntrl=       600 IOpCl=  0 I1Cent=           0 NGrid=           0
         NMat0=    1 NMatS0=  21528 NMatT0=    0 NMatD0=    1 NMtDS0=    0 NMtDT0=    0
 Petite list used in FoFCou.
 Closed shell SCF:
 Using DIIS extrapolation, IDIIS=  1040.
 NGot= 16106127360 LenX= 15988850015 LenY= 15988789549
 Requested convergence on RMS density matrix=1.00D-08 within 128 cycles.
 Requested convergence on MAX density matrix=1.00D-06.
 Requested convergence on             energy=1.00D-06.
 No special actions if energy rises.

 Cycle   1  Pass 1  IDiag  1:
 E= -279.370465803768    
 DIIS: error= 2.68D-02 at cycle   1 NSaved=   1.
 NSaved= 1 IEnMin= 1 EnMin= -279.370465803768     IErMin= 1 ErrMin= 2.68D-02
 ErrMax= 2.68D-02  0.00D+00 EMaxC= 1.00D-01 BMatC= 4.38D-01 BMatP= 4.38D-01
 IDIUse=3 WtCom= 7.32D-01 WtEn= 2.68D-01
 Coeff-Com:  0.100D+01
 Coeff-En:   0.100D+01
 Coeff:      0.100D+01
 Gap=     0.513 Goal=   None    Shift=    0.000
 GapD=    0.513 DampG=2.000 DampE=0.500 DampFc=1.0000 IDamp=-1.
 RMSDP=1.62D-03 MaxDP=9.92D-02              OVMax= 1.13D-01

 Cycle   2  Pass 1  IDiag  1:
 E= -279.452402992951     Delta-E=       -0.081937189183 Rises=F Damp=F
 DIIS: error= 1.79D-02 at cycle   2 NSaved=   2.
 NSaved= 2 IEnMin= 2 EnMin= -279.452402992951     IErMin= 2 ErrMin= 1.79D-02
 ErrMax= 1.79D-02  0.00D+00 EMaxC= 1.00D-01 BMatC= 7.18D-02 BMatP= 4.38D-01
 IDIUse=3 WtCom= 8.21D-01 WtEn= 1.79D-01
 Coeff-Com:  0.195D+00 0.805D+00
 Coeff-En:   0.000D+00 0.100D+01
 Coeff:      0.160D+00 0.840D+00
 Gap=     0.530 Goal=   None    Shift=    0.000
 RMSDP=9.00D-04 MaxDP=3.74D-02 DE=-8.19D-02 OVMax= 6.94D-02

 Cycle   3  Pass 1  IDiag  1:
 E= -279.481521333266     Delta-E=       -0.029118340315 Rises=F Damp=F
 DIIS: error= 1.04D-02 at cycle   3 NSaved=   3.
 NSaved= 3 IEnMin= 3 EnMin= -279.481521333266     IErMin= 3 ErrMin= 1.04D-02
 ErrMax= 1.04D-02  0.00D+00 EMaxC= 1.00D-01 BMatC= 2.88D-02 BMatP= 7.18D-02
 IDIUse=3 WtCom= 8.96D-01 WtEn= 1.04D-01
 Coeff-Com: -0.330D-01 0.378D+00 0.655D+00
 Coeff-En:   0.000D+00 0.241D+00 0.759D+00
 Coeff:     -0.296D-01 0.364D+00 0.666D+00
 Gap=     0.510 Goal=   None    Shift=    0.000
 RMSDP=3.77D-04 MaxDP=1.54D-02 DE=-2.91D-02 OVMax= 3.82D-02

 Cycle   4  Pass 1  IDiag  1:
 E= -279.500611868950     Delta-E=       -0.019090535684 Rises=F Damp=F
 DIIS: error= 1.29D-03 at cycle   4 NSaved=   4.
 NSaved= 4 IEnMin= 4 EnMin= -279.500611868950     IErMin= 4 ErrMin= 1.29D-03
 ErrMax= 1.29D-03  0.00D+00 EMaxC= 1.00D-01 BMatC= 4.94D-04 BMatP= 2.88D-02
 IDIUse=3 WtCom= 9.87D-01 WtEn= 1.29D-02
 Coeff-Com: -0.117D-01 0.575D-01 0.158D+00 0.796D+00
 Coeff-En:   0.000D+00 0.000D+00 0.000D+00 0.100D+01
 Coeff:     -0.115D-01 0.567D-01 0.156D+00 0.798D+00
 Gap=     0.502 Goal=   None    Shift=    0.000
 RMSDP=9.03D-05 MaxDP=2.77D-03 DE=-1.91D-02 OVMax= 1.12D-02

 Cycle   5  Pass 1  IDiag  1:
 E= -279.501288564679     Delta-E=       -0.000676695729 Rises=F Damp=F
 DIIS: error= 7.37D-04 at cycle   5 NSaved=   5.
 NSaved= 5 IEnMin= 5 EnMin= -279.501288564679     IErMin= 5 ErrMin= 7.37D-04
 ErrMax= 7.37D-04  0.00D+00 EMaxC= 1.00D-01 BMatC= 8.72D-05 BMatP= 4.94D-04
 IDIUse=3 WtCom= 9.93D-01 WtEn= 7.37D-03
 Coeff-Com:  0.613D-02-0.724D-01-0.118D+00 0.203D-01 0.116D+01
 Coeff-En:   0.000D+00 0.000D+00 0.000D+00 0.000D+00 0.100D+01
 Coeff:      0.609D-02-0.719D-01-0.117D+00 0.201D-01 0.116D+01
 Gap=     0.502 Goal=   None    Shift=    0.000
 RMSDP=7.63D-05 MaxDP=2.10D-03 DE=-6.77D-04 OVMax= 1.11D-02

 Cycle   6  Pass 1  IDiag  1:
 E= -279.501604119698     Delta-E=       -0.000315555019 Rises=F Damp=F
 DIIS: error= 2.85D-04 at cycle   6 NSaved=   6.
 NSaved= 6 IEnMin= 6 EnMin= -279.501604119698     IErMin= 6 ErrMin= 2.85D-04
 ErrMax= 2.85D-04  0.00D+00 EMaxC= 1.00D-01 BMatC= 1.67D-05 BMatP= 8.72D-05
 IDIUse=3 WtCom= 9.97D-01 WtEn= 2.85D-03
 Coeff-Com:  0.596D-03 0.161D-02 0.448D-02-0.130D+00-0.231D+00 0.135D+01
 Coeff-En:   0.000D+00 0.000D+00 0.000D+00 0.000D+00 0.000D+00 0.100D+01
 Coeff:      0.595D-03 0.160D-02 0.447D-02-0.129D+00-0.230D+00 0.135D+01
 Gap=     0.502 Goal=   None    Shift=    0.000
 RMSDP=4.54D-05 MaxDP=1.25D-03 DE=-3.16D-04 OVMax= 5.56D-03

 Cycle   7  Pass 1  IDiag  1:
 E= -279.501676994066     Delta-E=       -0.000072874368 Rises=F Damp=F
 DIIS: error= 1.23D-04 at cycle   7 NSaved=   7.
 NSaved= 7 IEnMin= 7 EnMin= -279.501676994066     IErMin= 7 ErrMin= 1.23D-04
 ErrMax= 1.23D-04  0.00D+00 EMaxC= 1.00D-01 BMatC= 4.53D-06 BMatP= 1.67D-05
 IDIUse=3 WtCom= 9.99D-01 WtEn= 1.23D-03
 Coeff-Com: -0.939D-03 0.136D-01 0.265D-01-0.244D-01-0.288D+00 0.392D+00
 Coeff-Com:  0.881D+00
 Coeff-En:   0.000D+00 0.000D+00 0.000D+00 0.000D+00 0.000D+00 0.000D+00
 Coeff-En:   0.100D+01
 Coeff:     -0.938D-03 0.136D-01 0.265D-01-0.243D-01-0.287D+00 0.392D+00
 Coeff:      0.881D+00
 Gap=     0.502 Goal=   None    Shift=    0.000
 RMSDP=1.33D-05 MaxDP=3.78D-04 DE=-7.29D-05 OVMax= 1.55D-03

 Cycle   8  Pass 1  IDiag  1:
 E= -279.501685913821     Delta-E=       -0.000008919755 Rises=F Damp=F
 DIIS: error= 5.74D-05 at cycle   8 NSaved=   8.
 NSaved= 8 IEnMin= 8 EnMin= -279.501685913821     IErMin= 8 ErrMin= 5.74D-05
 ErrMax= 5.74D-05  0.00D+00 EMaxC= 1.00D-01 BMatC= 6.07D-07 BMatP= 4.53D-06
 IDIUse=1 WtCom= 1.00D+00 WtEn= 0.00D+00
 Coeff-Com: -0.449D-03 0.345D-02 0.760D-02 0.274D-01-0.409D-01-0.198D+00
 Coeff-Com:  0.170D+00 0.103D+01
 Coeff:     -0.449D-03 0.345D-02 0.760D-02 0.274D-01-0.409D-01-0.198D+00
 Coeff:      0.170D+00 0.103D+01
 Gap=     0.502 Goal=   None    Shift=    0.000
 RMSDP=6.92D-06 MaxDP=2.03D-04 DE=-8.92D-06 OVMax= 7.48D-04

 Cycle   9  Pass 1  IDiag  1:
 E= -279.501687694349     Delta-E=       -0.000001780528 Rises=F Damp=F
 DIIS: error= 1.58D-05 at cycle   9 NSaved=   9.
 NSaved= 9 IEnMin= 9 EnMin= -279.501687694349     IErMin= 9 ErrMin= 1.58D-05
 ErrMax= 1.58D-05  0.00D+00 EMaxC= 1.00D-01 BMatC= 6.93D-08 BMatP= 6.07D-07
 IDIUse=1 WtCom= 1.00D+00 WtEn= 0.00D+00
 Coeff-Com:  0.123D-03-0.172D-02-0.307D-02-0.206D-02 0.342D-01-0.496D-04
 Coeff-Com: -0.166D+00-0.103D+00 0.124D+01
 Coeff:      0.123D-03-0.172D-02-0.307D-02-0.206D-02 0.342D-01-0.496D-04
 Coeff:     -0.166D+00-0.103D+00 0.124D+01
 Gap=     0.502 Goal=   None    Shift=    0.000
 RMSDP=1.94D-06 MaxDP=6.64D-05 DE=-1.78D-06 OVMax= 1.75D-04

 Cycle  10  Pass 1  IDiag  1:
 E= -279.501687854644     Delta-E=       -0.000000160295 Rises=F Damp=F
 DIIS: error= 4.13D-06 at cycle  10 NSaved=  10.
 NSaved=10 IEnMin=10 EnMin= -279.501687854644     IErMin=10 ErrMin= 4.13D-06
 ErrMax= 4.13D-06  0.00D+00 EMaxC= 1.00D-01 BMatC= 5.55D-09 BMatP= 6.93D-08
 IDIUse=1 WtCom= 1.00D+00 WtEn= 0.00D+00
 Coeff-Com:  0.310D-04-0.243D-03-0.324D-03-0.270D-02 0.163D-02 0.196D-01
 Coeff-Com: -0.130D-01-0.743D-01-0.801D-01 0.115D+01
 Coeff:      0.310D-04-0.243D-03-0.324D-03-0.270D-02 0.163D-02 0.196D-01
 Coeff:     -0.130D-01-0.743D-01-0.801D-01 0.115D+01
 Gap=     0.502 Goal=   None    Shift=    0.000
 RMSDP=5.05D-07 MaxDP=2.11D-05 DE=-1.60D-07 OVMax= 4.17D-05

 Cycle  11  Pass 1  IDiag  1:
 E= -279.501687867167     Delta-E=       -0.000000012522 Rises=F Damp=F
 DIIS: error= 2.03D-06 at cycle  11 NSaved=  11.
 NSaved=11 IEnMin=11 EnMin= -279.501687867167     IErMin=11 ErrMin= 2.03D-06
 ErrMax= 2.03D-06  0.00D+00 EMaxC= 1.00D-01 BMatC= 6.60D-10 BMatP= 5.55D-09
 IDIUse=1 WtCom= 1.00D+00 WtEn= 0.00D+00
 Coeff-Com: -0.213D-04 0.244D-03 0.487D-03 0.531D-03-0.428D-02-0.354D-02
 Coeff-Com:  0.210D-01 0.310D-01-0.139D+00-0.178D+00 0.127D+01
 Coeff:     -0.213D-04 0.244D-03 0.487D-03 0.531D-03-0.428D-02-0.354D-02
 Coeff:      0.210D-01 0.310D-01-0.139D+00-0.178D+00 0.127D+01
 Gap=     0.502 Goal=   None    Shift=    0.000
 RMSDP=1.78D-07 MaxDP=6.52D-06 DE=-1.25D-08 OVMax= 1.74D-05

 Cycle  12  Pass 1  IDiag  1:
 E= -279.501687868974     Delta-E=       -0.000000001807 Rises=F Damp=F
 DIIS: error= 5.88D-07 at cycle  12 NSaved=  12.
 NSaved=12 IEnMin=12 EnMin= -279.501687868974     IErMin=12 ErrMin= 5.88D-07
 ErrMax= 5.88D-07  0.00D+00 EMaxC= 1.00D-01 BMatC= 7.17D-11 BMatP= 6.60D-10
 IDIUse=1 WtCom= 1.00D+00 WtEn= 0.00D+00
 Coeff-Com:  0.123D-05-0.291D-04-0.628D-04 0.183D-03 0.108D-02-0.230D-02
 Coeff-Com: -0.410D-02 0.548D-02 0.416D-01-0.114D+00-0.280D+00 0.135D+01
 Coeff:      0.123D-05-0.291D-04-0.628D-04 0.183D-03 0.108D-02-0.230D-02
 Coeff:     -0.410D-02 0.548D-02 0.416D-01-0.114D+00-0.280D+00 0.135D+01
 Gap=     0.502 Goal=   None    Shift=    0.000
 RMSDP=7.17D-08 MaxDP=2.83D-06 DE=-1.81D-09 OVMax= 6.72D-06

 Cycle  13  Pass 1  IDiag  1:
 E= -279.501687869205     Delta-E=       -0.000000000231 Rises=F Damp=F
 DIIS: error= 1.69D-07 at cycle  13 NSaved=  13.
 NSaved=13 IEnMin=13 EnMin= -279.501687869205     IErMin=13 ErrMin= 1.69D-07
 ErrMax= 1.69D-07  0.00D+00 EMaxC= 1.00D-01 BMatC= 4.02D-12 BMatP= 7.17D-11
 IDIUse=1 WtCom= 1.00D+00 WtEn= 0.00D+00
 Coeff-Com:  0.128D-05-0.140D-04-0.225D-04-0.892D-04 0.122D-03 0.759D-03
 Coeff-Com: -0.840D-03-0.326D-02 0.570D-03 0.411D-01-0.357D-01-0.326D+00
 Coeff-Com:  0.132D+01
 Coeff:      0.128D-05-0.140D-04-0.225D-04-0.892D-04 0.122D-03 0.759D-03
 Coeff:     -0.840D-03-0.326D-02 0.570D-03 0.411D-01-0.357D-01-0.326D+00
 Coeff:      0.132D+01
 Gap=     0.502 Goal=   None    Shift=    0.000
 RMSDP=1.91D-08 MaxDP=5.61D-07 DE=-2.31D-10 OVMax= 1.56D-06

 Cycle  14  Pass 1  IDiag  1:
 E= -279.501687869218     Delta-E=       -0.000000000013 Rises=F Damp=F
 DIIS: error= 2.44D-08 at cycle  14 NSaved=  14.
 NSaved=14 IEnMin=14 EnMin= -279.501687869218     IErMin=14 ErrMin= 2.44D-08
 ErrMax= 2.44D-08  0.00D+00 EMaxC= 1.00D-01 BMatC= 1.96D-13 BMatP= 4.02D-12
 IDIUse=1 WtCom= 1.00D+00 WtEn= 0.00D+00
 Coeff-Com: -0.189D-06 0.311D-05 0.556D-05 0.450D-05-0.822D-04 0.456D-04
 Coeff-Com:  0.280D-03 0.225D-03-0.244D-02 0.145D-02 0.170D-01-0.256D-01
 Coeff-Com: -0.200D+00 0.121D+01
 Coeff:     -0.189D-06 0.311D-05 0.556D-05 0.450D-05-0.822D-04 0.456D-04
 Coeff:      0.280D-03 0.225D-03-0.244D-02 0.145D-02 0.170D-01-0.256D-01
 Coeff:     -0.200D+00 0.121D+01
 Gap=     0.502 Goal=   None    Shift=    0.000
 RMSDP=3.79D-09 MaxDP=9.12D-08 DE=-1.27D-11 OVMax= 3.41D-07

 SCF Done:  E(RHF) =  -279.501687869     A.U. after   14 cycles
            NFock= 14  Conv=0.38D-08     -V/T= 2.0024
 KE= 2.788453346862D+02 PE=-8.950707402936D+02 EE= 2.198517062033D+02
 Leave Link  502 at Mon Feb 28 01:12:17 2022, MaxMem= 16106127360 cpu:              56.3 elap:               3.5
 (Enter /sw/contrib/gaussian/g16/B01/g16/l801.exe)
 ExpMin= 2.53D-02 ExpMax= 1.53D+04 ExpMxC= 5.22D+02 IAcc=3 IRadAn=         5 AccDes= 0.00D+00
 HarFok:  IExCor=  205 AccDes= 0.00D+00 IRadAn=         5 IDoV=-2 UseB2=F ITyADJ=14
 ICtDFT= 12500011 ScaDFX=  1.000000  1.000000  1.000000  1.000000
 Largest valence mixing into a core orbital is  2.08D-04
 Largest core mixing into a valence orbital is  3.63D-05
 Range of M.O.s used for correlation:     5   207
 NBasis=   207 NAE=    16 NBE=    16 NFC=     4 NFV=     0
 NROrb=    203 NOA=    12 NOB=    12 NVA=   191 NVB=   191

 **** Warning!!: The largest alpha MO coefficient is  0.17662120D+02

 Leave Link  801 at Mon Feb 28 01:12:18 2022, MaxMem= 16106127360 cpu:               1.5 elap:               0.1
 (Enter /sw/contrib/gaussian/g16/B01/g16/l906.exe)
 Frozen-core derivative calculation, NFC=   4 NFV=   0.
 FulOut=F Deriv=T AODrv=T NAtomX=     5
   MMem=           0  MDisk=          12 MDiskD=          12
  W3Min=      811440 MinDsk=     2425030 NBas6D=         245
 NBas2D=       30762    NTT=       30135    LW2=     7400000
    MDV= 16105574283 MDiskM=      328644 NBas2p=       30702
 Disk-based method using ON**2 memory for 12 occupieds at a time.
 Permanent disk used for amplitudes=    11516536 words.
 Estimated scratch disk usage=   321251614 words.
 IMap=   1   2   3   4   5   6   7   8   9  10  11  12  13  14  15  16
 Actual    scratch disk usage=   310331678 words.
 JobTyp=1 Pass  1:  I=   5 to  16 NPSUse= 28 ParTrn=T ParDer=T DoDerP=T.
 (rs|ai) integrals will be sorted in core.
 Spin components of T(2) and E(2):
     alpha-alpha T2 =       0.3402511931D-01 E2=     -0.1224052824D+00
     alpha-beta  T2 =       0.1868493027D+00 E2=     -0.7002363237D+00
     beta-beta   T2 =       0.3402511931D-01 E2=     -0.1224052824D+00
 The integrals were generated   1 times.
 ANorm=    0.1120222987D+01
 E2 =    -0.9450468885D+00 EUMP2 =    -0.28044673475774D+03
 Leave Link  906 at Mon Feb 28 01:13:52 2022, MaxMem= 16106127360 cpu:            2649.9 elap:              94.9
 (Enter /sw/contrib/gaussian/g16/B01/g16/l1101.exe)
 Using compressed Sx but separate Hx and Fx, NAtomX=     5.
 Will process      6 centers per pass.
 Leave Link 1101 at Mon Feb 28 01:13:53 2022, MaxMem= 16106127360 cpu:               7.3 elap:               0.4
 (Enter /sw/contrib/gaussian/g16/B01/g16/l1102.exe)
 Leave Link 1102 at Mon Feb 28 01:13:53 2022, MaxMem= 16106127360 cpu:               1.3 elap:               0.1
 (Enter /sw/contrib/gaussian/g16/B01/g16/l1110.exe)
 Forming Gx(P) for the SCF density, NAtomX=     5.
 Integral derivatives from FoFJK, PRISM(SPDF).
 Do as many integral derivatives as possible in FoFJK.
 G2DrvN: MDV=   16106126844.
 G2DrvN: will do     6 centers at a time, making    1 passes.
 Calling FoFCou, ICntrl=  3107 FMM=F I1Cent=   0 AccDes= 0.00D+00.
 FoFJK:  IHMeth= 1 ICntrl=    3107 DoSepK=F KAlg= 0 I1Cent=           0 FoldK=F
 IRaf=         0 NMat=       1 IRICut=       1 DoRegI=T DoRafI=F ISym2E= 1 IDoP0=0 IntGTp=1.
 FoFCou: FMM=F IPFlag=           0 FMFlag=      100000 FMFlg1=           0
         NFxFlg=           0 DoJE=F BraDBF=F KetDBF=F FulRan=T
         wScrn=  0.000000 ICntrl=      3107 IOpCl=  0 I1Cent=           0 NGrid=           0
         NMat0=    1 NMatS0=      1 NMatT0=    0 NMatD0=    1 NMtDS0=    0 NMtDT0=    0
 Petite list used in FoFCou.
 End of G2Drv F.D. properties file   721 does not exist.
 End of G2Drv F.D. properties file   722 does not exist.
 End of G2Drv F.D. properties file   788 does not exist.
 Leave Link 1110 at Mon Feb 28 01:13:57 2022, MaxMem= 16106127360 cpu:              77.3 elap:               2.8
 (Enter /sw/contrib/gaussian/g16/B01/g16/l1002.exe)
 Minotr:  Closed shell wavefunction.
          IDoAtm=11111
          Frozen-core window.
          Direct CPHF calculation.
          Differentiating once with respect to electric field.
                with respect to dipole field.
          Differentiating once with respect to nuclear coordinates.
          Requested convergence is 1.0D-08 RMS, and 1.0D-07 maximum.
          Secondary convergence is 1.0D-12 RMS, and 1.0D-12 maximum.
          NewPWx=T KeepS1=T KeepF1=T KeepIn=T MapXYZ=F SortEE=F KeepMc=T.
 Keep R1 ints in memory in symmetry-blocked form, NReq=348888983.
 FoFCou: FMM=F IPFlag=           0 FMFlag=           0 FMFlg1=           0
         NFxFlg=           0 DoJE=F BraDBF=F KetDBF=F FulRan=T
         wScrn=  0.000000 ICntrl=       600 IOpCl=  0 I1Cent=           0 NGrid=           0
         NMat0=    1 NMatS0=  21528 NMatT0=    0 NMatD0=    1 NMtDS0=    0 NMtDT0=    0
 Petite list used in FoFCou.
          MDV=   16106127360 using IRadAn=       4.
          Solving linear equations simultaneously, MaxMat=       0.
          There are    18 degrees of freedom in the 1st order CPHF.  IDoFFX=6 NUNeed=    18.
     15 vectors produced by pass  0 Test12= 1.70D-14 5.56D-09 XBig12= 8.29D+00 1.06D+00.
 AX will form    15 AO Fock derivatives at one time.
     15 vectors produced by pass  1 Test12= 1.70D-14 5.56D-09 XBig12= 1.34D+00 2.63D-01.
     15 vectors produced by pass  2 Test12= 1.70D-14 5.56D-09 XBig12= 1.41D-01 9.77D-02.
     15 vectors produced by pass  3 Test12= 1.70D-14 5.56D-09 XBig12= 4.93D-03 1.09D-02.
     15 vectors produced by pass  4 Test12= 1.70D-14 5.56D-09 XBig12= 9.84D-05 1.92D-03.
     15 vectors produced by pass  5 Test12= 1.70D-14 5.56D-09 XBig12= 1.39D-06 1.76D-04.
     15 vectors produced by pass  6 Test12= 1.70D-14 5.56D-09 XBig12= 1.10D-08 1.49D-05.
     13 vectors produced by pass  7 Test12= 1.70D-14 5.56D-09 XBig12= 8.14D-11 1.29D-06.
      3 vectors produced by pass  8 Test12= 1.70D-14 5.56D-09 XBig12= 5.68D-13 1.20D-07.
      2 vectors produced by pass  9 Test12= 1.70D-14 5.56D-09 XBig12= 3.69D-15 9.87D-09.
 InvSVY:  IOpt=1 It=  1 EMax= 1.22D-15
 Solved reduced A of dimension   123 with    15 vectors.
 FullF1:  Do perturbations      1 to      18.
 Saving first derivative matrices.
 End of Minotr F.D. properties file   721 does not exist.
 End of Minotr F.D. properties file   722 does not exist.
 End of Minotr F.D. properties file   788 does not exist.
 Leave Link 1002 at Mon Feb 28 01:13:59 2022, MaxMem= 16106127360 cpu:              75.7 elap:               2.7
 (Enter /sw/contrib/gaussian/g16/B01/g16/l811.exe)
 MDV= 16106127360.
 Form MO integral derivatives with frozen-active canonical formalism.
 MOERI=1 MOERIx=1 NAtoms=     5 NAtomX=     5.
 Discarding MO integrals.
 MO basis two electron integral derivatives will not be stored on disk.
 IAlg= 3 DoFC=T DoPWx=T Debug=F.
 Frozen-core window:  NFC=   4 NFV=   0.
 Reordered first order wavefunction length =     18678272
 In DefCFB: NBatch=  1 ICI= 16 ICA=191 LFMax= 96
            Large arrays: LIAPS=   619940160 LIARS=   288257200 words.
 In StABat: MaxSiz= 55 MinSiz= 25 NAtomB=  5
 DoIAMN: NPSUse= 28.
 Leave Link  811 at Mon Feb 28 01:15:30 2022, MaxMem= 16106127360 cpu:            2507.7 elap:              89.9
 (Enter /sw/contrib/gaussian/g16/B01/g16/l804.exe)
 Frozen-core window:  NFC=   4 NFV=   0.
 Closed-shell transformation, MDV= 16106127360 ITran=4 ISComp=1.
 Semi-Direct transformation.
 ModeAB=           2 MOrb=            16 LenV=   16104923051
 LASXX=     67341636 LTotXX=    67341636 LenRXX=    67341636
 LTotAB=    68301760 MaxLAS=    99807120 LenRXY=    99807120
 NonZer=   134683272 LenScr=   202817536 LnRSAI=           0
 LnScr1=           0 LExtra=           0 Total=    369966292
 MaxDsk=          -1 SrtSym=           F ITran=            4
 DoSDTr:  NPSUse= 28
 JobTyp=0 Pass  1:  I=   1 to  16.
 (rs|ai) integrals will be sorted in core.
 Complete sort for first half transformation.
 First half transformation complete.
 Begin second half transformation for I=  10.
 Begin second half transformation for I=  10.
 Complete sort for second half transformation.
 Second half transformation complete.
 Spin components of T(2) and E(2):
     alpha-alpha T2 =       0.3402511931D-01 E2=     -0.1224052824D+00
     alpha-beta  T2 =       0.1868493027D+00 E2=     -0.7002363237D+00
     beta-beta   T2 =       0.3402511931D-01 E2=     -0.1224052824D+00
 ANorm=    0.1584234542D+01
 E2 =    -0.9450468885D+00 EUMP2 =    -0.28044673475774D+03
 Leave Link  804 at Mon Feb 28 01:15:46 2022, MaxMem= 16106127360 cpu:             435.5 elap:              15.7
 (Enter /sw/contrib/gaussian/g16/B01/g16/l1002.exe)
 Minotr:  Closed shell wavefunction.
          Computing MP2/KS-MP2 derivatives.
          Using Z-Vector for PSCF gradient.
          Skipping F1 and S1 gradient terms here.
          IDoAtm=11111
          Frozen-core window.
          Using MO integrals in the linear equations.
          Forming densities via direct SCF.
          Differentiating once with respect to electric field.
                with respect to dipole field.
          Differentiating once with respect to nuclear coordinates.
          Using symmetry in CPHF.
          Requested convergence is 1.0D-10 RMS, and 1.0D-09 maximum.
          NewPWx=F KeepS1=T KeepF1=T KeepIn=T MapXYZ=F SortEE=F KeepMc=T.
          MDV=   16106127360 using IRadAn=       5.
          Solving linear equations separately, MaxMat=       0.
          There are     1 degrees of freedom in the 1st order CPHF.  IDoFFX=0 NUNeed=     1.
 FoFJK:  IHMeth= 1 ICntrl=       0 DoSepK=F KAlg= 0 I1Cent=           0 FoldK=F
 IRaf=         0 NMat=       1 IRICut=       1 DoRegI=T DoRafI=F ISym2E= 0 IDoP0=0 IntGTp=1.
 FoFCou: FMM=F IPFlag=           0 FMFlag=      100000 FMFlg1=           0
         NFxFlg=           0 DoJE=F BraDBF=F KetDBF=F FulRan=T
         wScrn=  0.000000 ICntrl=         0 IOpCl=  0 I1Cent=           0 NGrid=           0
         NMat0=    1 NMatS0=      1 NMatT0=    0 NMatD0=    1 NMtDS0=    0 NMtDT0=    0
 Symmetry not used in FoFCou.
 LinEq1:  Iter=  0 NonCon=     1 RMS=5.96D-03 Max=1.33D-01 NDo=     1
 LinEq1:  Iter=  1 NonCon=     1 RMS=1.90D-03 Max=3.83D-02 NDo=     1
 LinEq1:  Iter=  2 NonCon=     1 RMS=8.68D-04 Max=1.41D-02 NDo=     1
 LinEq1:  Iter=  3 NonCon=     1 RMS=3.87D-04 Max=7.81D-03 NDo=     1
 LinEq1:  Iter=  4 NonCon=     1 RMS=1.19D-04 Max=1.90D-03 NDo=     1
 LinEq1:  Iter=  5 NonCon=     1 RMS=4.55D-05 Max=7.24D-04 NDo=     1
 LinEq1:  Iter=  6 NonCon=     1 RMS=2.03D-05 Max=2.36D-04 NDo=     1
 LinEq1:  Iter=  7 NonCon=     1 RMS=8.15D-06 Max=1.59D-04 NDo=     1
 LinEq1:  Iter=  8 NonCon=     1 RMS=3.47D-06 Max=3.43D-05 NDo=     1
 LinEq1:  Iter=  9 NonCon=     1 RMS=9.45D-07 Max=1.31D-05 NDo=     1
 LinEq1:  Iter= 10 NonCon=     1 RMS=1.86D-07 Max=2.01D-06 NDo=     1
 LinEq1:  Iter= 11 NonCon=     1 RMS=3.46D-08 Max=3.58D-07 NDo=     1
 LinEq1:  Iter= 12 NonCon=     1 RMS=8.33D-09 Max=1.30D-07 NDo=     1
 LinEq1:  Iter= 13 NonCon=     1 RMS=1.50D-09 Max=2.59D-08 NDo=     1
 LinEq1:  Iter= 14 NonCon=     1 RMS=2.72D-10 Max=3.82D-09 NDo=     1
 LinEq1:  Iter= 15 NonCon=     0 RMS=4.91D-11 Max=5.54D-10 NDo=     1
 Linear equations converged to 1.000D-10 1.000D-09 after    15 iterations.
 End of Minotr F.D. properties file   721 does not exist.
 End of Minotr F.D. properties file   722 does not exist.
 End of Minotr F.D. properties file   788 does not exist.
 Leave Link 1002 at Mon Feb 28 01:15:48 2022, MaxMem= 16106127360 cpu:              72.8 elap:               2.7
 (Enter /sw/contrib/gaussian/g16/B01/g16/l1102.exe)
 Use density number 2.
 Symmetrizing basis deriv contribution to polar:
 IMax=3 JMax=2 DiffMx= 0.00D+00
 Leave Link 1102 at Mon Feb 28 01:15:49 2022, MaxMem= 16106127360 cpu:               4.4 elap:               0.3
 (Enter /sw/contrib/gaussian/g16/B01/g16/l1110.exe)
 Forming Gx(P) for generalized density number  2 NAtomX=     5.
 Integral derivatives from FoFJK, PRISM(SPDF).
 Do as many integral derivatives as possible in FoFJK.
 G2DrvN: MDV=   16106126844.
 G2DrvN: will do     6 centers at a time, making    1 passes.
 Calling FoFCou, ICntrl=  3107 FMM=F I1Cent=   0 AccDes= 0.00D+00.
 FoFJK:  IHMeth= 1 ICntrl=    3107 DoSepK=F KAlg= 0 I1Cent=           0 FoldK=F
 IRaf=         0 NMat=       1 IRICut=       1 DoRegI=T DoRafI=F ISym2E= 1 IDoP0=0 IntGTp=1.
 FoFCou: FMM=F IPFlag=           0 FMFlag=      100000 FMFlg1=           0
         NFxFlg=           0 DoJE=F BraDBF=F KetDBF=F FulRan=T
         wScrn=  0.000000 ICntrl=      3107 IOpCl=  0 I1Cent=           0 NGrid=           0
         NMat0=    1 NMatS0=      1 NMatT0=    0 NMatD0=    1 NMtDS0=    0 NMtDT0=    0
 Petite list used in FoFCou.
 End of G2Drv F.D. properties file   721 does not exist.
 End of G2Drv F.D. properties file   722 does not exist.
 End of G2Drv F.D. properties file   788 does not exist.
 Leave Link 1110 at Mon Feb 28 01:15:52 2022, MaxMem= 16106127360 cpu:              76.5 elap:               2.8
 (Enter /sw/contrib/gaussian/g16/B01/g16/l1112.exe)
 MP22nd: MDV=   16106127360
 This link is doing NAtomX=     5 total of    18 degrees of freedom.
 Using ON3 I/O method in MakUI.
 Frozen-core window:  NFC=   4 NFV=   0.
 Using Ix for Sx.
 Use MO integrals over full window.
 Using OV2 memory method for fx*t*t/D, MaxI=    16 DoOO2=F NP=  28.
 R2 and R3 integrals will be kept in memory, NReq=   915591705.
 FoFCou: FMM=F IPFlag=           0 FMFlag=           0 FMFlg1=           0
         NFxFlg=           0 DoJE=F BraDBF=F KetDBF=F FulRan=T
         wScrn=  0.000000 ICntrl=       600 IOpCl=  0 I1Cent=           0 NGrid=           0
         NMat0=    1 NMatS0=      1 NMatT0=    0 NMatD0=    1 NMtDS0=    0 NMtDT0=    0
 Symmetry not used in FoFCou.
 DD1Dir will call FoFMem   1 times, MxPair=       272
 NAB=   136 NAA=     0 NBB=     0.
 Symmetry is being used.
 FoFJK:  IHMeth= 1 ICntrl=       0 DoSepK=F KAlg= 0 I1Cent=           0 FoldK=F
 IRaf=         0 NMat=      18 IRICut=      45 DoRegI=T DoRafI=T ISym2E= 2 IDoP0=3 IntGTp=3.
 Discarding MO integrals.
 Leave Link 1112 at Mon Feb 28 01:16:24 2022, MaxMem= 16106127360 cpu:             883.0 elap:              31.9
 (Enter /sw/contrib/gaussian/g16/B01/g16/l601.exe)
 Copying SCF densities to generalized density rwf, IOpCl= 0 IROHF=0.

 **********************************************************************

            Population analysis using the MP2 Density.

 **********************************************************************

 Orbital symmetries:
       Occupied  (A') (A') (A') (A') (A') (A') (A') (A') (A') (A')
                 (A") (A') (A") (A') (A") (A')
       Virtual   (A') (A") (A') (A') (A') (A") (A') (A') (A") (A')
                 (A") (A') (A') (A') (A") (A') (A') (A") (A') (A')
                 (A') (A') (A') (A') (A") (A') (A') (A") (A') (A')
                 (A") (A') (A") (A') (A') (A") (A') (A') (A") (A')
                 (A") (A') (A") (A') (A') (A") (A') (A') (A") (A')
                 (A") (A') (A') (A') (A") (A') (A") (A') (A") (A')
                 (A') (A') (A") (A') (A') (A") (A') (A") (A') (A')
                 (A") (A') (A') (A") (A") (A') (A') (A") (A') (A')
                 (A') (A") (A') (A") (A') (A") (A') (A") (A') (A')
                 (A") (A') (A') (A") (A') (A") (A') (A") (A') (A')
                 (A") (A') (A") (A') (A') (A") (A') (A') (A") (A')
                 (A") (A') (A') (A') (A") (A') (A') (A') (A") (A')
                 (A") (A') (A") (A') (A') (A") (A") (A') (A") (A')
                 (A') (A') (A') (A") (A") (A") (A') (A') (A') (A')
                 (A") (A') (A") (A') (A') (A") (A') (A') (A') (A')
                 (A") (A') (A') (A") (A') (A") (A') (A") (A') (A")
                 (A') (A") (A') (A') (A") (A") (A") (A') (A") (A')
                 (A") (A') (A") (A') (A") (A') (A") (A") (A') (A')
                 (A') (A') (A') (A') (A') (A') (A') (A') (A') (A')
                 (A')
 The electronic state is 1-A'.
 Alpha  occ. eigenvalues --  -20.69088 -20.68430 -20.65998 -15.81283  -1.62403
 Alpha  occ. eigenvalues --   -1.49574  -1.25441  -0.94807  -0.77278  -0.75918
 Alpha  occ. eigenvalues --   -0.71179  -0.67937  -0.62046  -0.58943  -0.48522
 Alpha  occ. eigenvalues --   -0.47250
 Alpha virt. eigenvalues --    0.02963   0.07167   0.08594   0.10172   0.13395
 Alpha virt. eigenvalues --    0.13396   0.14408   0.15453   0.17826   0.19417
 Alpha virt. eigenvalues --    0.19981   0.20636   0.22081   0.23542   0.23738
 Alpha virt. eigenvalues --    0.26605   0.29343   0.30388   0.31046   0.34344
 Alpha virt. eigenvalues --    0.34974   0.38722   0.42200   0.43164   0.52734
 Alpha virt. eigenvalues --    0.52925   0.55850   0.58165   0.62595   0.63829
 Alpha virt. eigenvalues --    0.67447   0.68446   0.70639   0.71114   0.72411
 Alpha virt. eigenvalues --    0.72940   0.74467   0.79156   0.79205   0.81031
 Alpha virt. eigenvalues --    0.81271   0.83059   0.86823   0.90830   0.92195
 Alpha virt. eigenvalues --    0.92632   0.95661   0.97753   0.98463   1.01647
 Alpha virt. eigenvalues --    1.05200   1.05482   1.08237   1.11766   1.14120
 Alpha virt. eigenvalues --    1.18949   1.22077   1.23267   1.33885   1.35046
 Alpha virt. eigenvalues --    1.38624   1.45348   1.48780   1.50897   1.53804
 Alpha virt. eigenvalues --    1.56694   1.57972   1.61326   1.66420   1.66964
 Alpha virt. eigenvalues --    1.70329   1.79317   1.83128   1.83471   1.87830
 Alpha virt. eigenvalues --    1.91015   1.95621   1.99216   2.00571   2.07769
 Alpha virt. eigenvalues --    2.12099   2.13202   2.14990   2.22445   2.26460
 Alpha virt. eigenvalues --    2.26467   2.28958   2.31434   2.34407   2.38614
 Alpha virt. eigenvalues --    2.42444   2.42884   2.45416   2.46283   2.47670
 Alpha virt. eigenvalues --    2.50131   2.58949   2.59660   2.62096   2.62472
 Alpha virt. eigenvalues --    2.63460   2.66755   2.75752   2.82492   2.85562
 Alpha virt. eigenvalues --    2.88426   2.89395   2.92411   2.95805   3.02514
 Alpha virt. eigenvalues --    3.06814   3.12165   3.20468   3.22664   3.31667
 Alpha virt. eigenvalues --    3.34164   3.51707   3.64345   3.83842   3.84451
 Alpha virt. eigenvalues --    4.14870   4.16306   4.18379   4.25762   4.35163
 Alpha virt. eigenvalues --    4.39325   4.46331   4.51919   4.66182   4.71063
 Alpha virt. eigenvalues --    4.80517   4.82479   4.82889   4.89576   5.02326
 Alpha virt. eigenvalues --    5.07750   5.10346   5.14435   5.17906   5.24250
 Alpha virt. eigenvalues --    5.27217   5.30830   5.32962   5.35518   5.60646
 Alpha virt. eigenvalues --    5.67364   5.76947   5.82897   5.95739   6.16859
 Alpha virt. eigenvalues --    6.30874   6.33828   6.39440   6.49362   6.50540
 Alpha virt. eigenvalues --    6.61374   6.66799   6.69952   6.75777   6.76339
 Alpha virt. eigenvalues --    6.83268   6.89831   7.01348   7.05638   7.05695
 Alpha virt. eigenvalues --    7.09009   7.12439   7.14972   7.18154   7.22506
 Alpha virt. eigenvalues --    7.24176   7.30725   7.32516   7.34740   7.39941
 Alpha virt. eigenvalues --    7.43148   7.48452   7.60796   7.61800   7.62689
 Alpha virt. eigenvalues --    7.66574   7.78929   7.88683   8.09288   8.31467
 Alpha virt. eigenvalues --    8.40919   8.54432  13.39112  14.39334  15.16187
 Alpha virt. eigenvalues --   16.15243
          Condensed to atoms (all electrons):
               1          2          3          4          5
     1  H    0.589533   0.128392   0.020056   0.012407  -0.000650
     2  O    0.128392   8.321739  -0.173610  -0.090440   0.015508
     3  O    0.020056  -0.173610   8.469522  -0.130016  -0.038788
     4  N    0.012407  -0.090440  -0.130016   6.972056  -0.055750
     5  O   -0.000650   0.015508  -0.038788  -0.055750   8.272933
 Mulliken charges:
               1
     1  H    0.250262
     2  O   -0.201589
     3  O   -0.147163
     4  N    0.291743
     5  O   -0.193254
 Sum of Mulliken charges =  -0.00000
 Mulliken charges with hydrogens summed into heavy atoms:
               1
     2  O    0.048673
     3  O   -0.147163
     4  N    0.291743
     5  O   -0.193254
 APT charges:
               1
     1  H    0.299168
     2  O   -0.288249
     3  O   -0.495597
     4  N    0.876776
     5  O   -0.392098
 Sum of APT charges =  -0.00000
 APT charges with hydrogens summed into heavy atoms:
               1
     2  O    0.010919
     3  O   -0.495597
     4  N    0.876776
     5  O   -0.392098
 Electronic spatial extent (au):  <R**2>=            252.8953
 Charge=             -0.0000 electrons
 Dipole moment (field-independent basis, Debye):
    X=              0.5083    Y=              1.3608    Z=              0.0000  Tot=              1.4526
 Quadrupole moment (field-independent basis, Debye-Ang):
   XX=            -22.4690   YY=            -18.6158   ZZ=            -22.0104
   XY=              3.2560   XZ=             -0.0000   YZ=             -0.0000
 Traceless Quadrupole moment (field-independent basis, Debye-Ang):
   XX=             -1.4373   YY=              2.4159   ZZ=             -0.9787
   XY=              3.2560   XZ=             -0.0000   YZ=             -0.0000
 Octapole moment (field-independent basis, Debye-Ang**2):
  XXX=              2.8611  YYY=             11.2987  ZZZ=             -0.0000  XYY=              7.9103
  XXY=              6.5799  XXZ=              0.0000  XZZ=             -1.5784  YZZ=             -0.8543
  YYZ=              0.0000  XYZ=              0.0000
 Hexadecapole moment (field-independent basis, Debye-Ang**3):
 XXXX=           -158.4563 YYYY=            -89.7359 ZZZZ=            -18.2413 XXXY=            -36.6828
 XXXZ=             -0.0000 YYYX=            -30.7343 YYYZ=             -0.0000 ZZZX=             -0.0000
 ZZZY=             -0.0000 XXYY=            -33.9625 XXZZ=            -30.8713 YYZZ=            -20.6702
 XXYZ=             -0.0000 YYXZ=             -0.0000 ZZXY=            -15.0589
 N-N= 1.168720115349D+02 E-N=-8.958545558432D+02  KE= 2.801973949430D+02
 Symmetry A'   KE= 2.662260112797D+02
 Symmetry A"   KE= 1.397138366330D+01
  Exact polarizability:  34.001   9.472  30.252   0.000   0.000  17.927
 Approx polarizability:  29.007   5.105  23.520   0.000   0.000  15.522
 No NMR shielding tensors so no spin-rotation constants.
 Leave Link  601 at Mon Feb 28 01:16:24 2022, MaxMem= 16106127360 cpu:               3.6 elap:               0.2
 (Enter /sw/contrib/gaussian/g16/B01/g16/l701.exe)
 ... and contract with generalized density number  2.
 Compute integral second derivatives.
 Leave Link  701 at Mon Feb 28 01:16:24 2022, MaxMem= 16106127360 cpu:               5.3 elap:               0.3
 (Enter /sw/contrib/gaussian/g16/B01/g16/l702.exe)
 L702 exits ... SP integral derivatives will be done elsewhere.
 Leave Link  702 at Mon Feb 28 01:16:24 2022, MaxMem= 16106127360 cpu:               0.5 elap:               0.0
 (Enter /sw/contrib/gaussian/g16/B01/g16/l703.exe)
 Integral derivatives from FoFJK, PRISM(SPDF).
 Compute integral second derivatives, UseDBF=F ICtDFT=           0.
 Calling FoFJK, ICntrl=  10100127 FMM=F ISym2X=1 I1Cent= 0 IOpClX= 0 NMat=1 NMatS=1 NMatT=0.
 FoFJK:  IHMeth= 1 ICntrl=10100127 DoSepK=F KAlg= 0 I1Cent=           0 FoldK=F
 IRaf=         0 NMat=       1 IRICut=       1 DoRegI=T DoRafI=F ISym2E= 1 IDoP0=0 IntGTp=1.
 FoFCou: FMM=F IPFlag=           0 FMFlag=      100000 FMFlg1=         800
         NFxFlg=           0 DoJE=F BraDBF=F KetDBF=F FulRan=T
         wScrn=  0.000000 ICntrl=  10100127 IOpCl=  0 I1Cent=           0 NGrid=           0
         NMat0=    1 NMatS0=      1 NMatT0=    0 NMatD0=    1 NMtDS0=    0 NMtDT0=    0
 Petite list used in FoFCou.
 Leave Link  703 at Mon Feb 28 01:16:36 2022, MaxMem= 16106127360 cpu:             330.4 elap:              11.9
 (Enter /sw/contrib/gaussian/g16/B01/g16/l716.exe)
 Dipole        = 1.99968206D-01 5.35365921D-01 9.58741919D-33
 Polarizability= 3.40013617D+01 9.47157547D+00 3.02522263D+01
                 5.56148434D-31 4.19198088D-31 1.79274769D+01
 Full mass-weighted force constant matrix:
 Low frequencies --- -269.2429   -8.9767   -0.0020   -0.0012   -0.0004    2.3462
 Low frequencies ---    6.2998  229.0248  341.3308
 ******    1 imaginary frequencies (negative Signs) ****** 
 Diagonal vibrational polarizability:
       14.0178668      25.1836849      46.7019868
 Harmonic frequencies (cm**-1), IR intensities (KM/Mole), Raman scattering
 activities (A**4/AMU), depolarization ratios for plane and unpolarized
 incident light, reduced masses (AMU), force constants (mDyne/A),
 and normal coordinates:
                      1                      2                      3
                     A"                     A"                     A'
 Frequencies --   -269.2423               229.0178               341.3305
 Red. masses --      1.1389                10.5205                 8.6141
 Frc consts  --      0.0486                 0.3251                 0.5913
 IR Inten    --    124.7315                 0.7748                 4.5994
  Atom  AN      X      Y      Z        X      Y      Z        X      Y      Z
     1   1    -0.00   0.00   1.00    -0.00   0.00  -0.57     0.54  -0.44  -0.00
     2   8     0.00   0.00  -0.06    -0.00   0.00  -0.31    -0.09  -0.38  -0.00
     3   8    -0.00  -0.00  -0.04     0.00  -0.00   0.33    -0.15   0.43   0.00
     4   7     0.00  -0.00   0.06     0.00  -0.00   0.52     0.04   0.26   0.00
     5   8    -0.00   0.00  -0.01    -0.00   0.00  -0.44     0.17  -0.25  -0.00
                      4                      5                      6
                     A'                     A'                     A'
 Frequencies --    451.6582               785.3965               967.2663
 Red. masses --     12.3158                12.9188                15.3946
 Frc consts  --      1.4802                 4.6952                 8.4862
 IR Inten    --    199.7300               170.7689                22.6396
  Atom  AN      X      Y      Z        X      Y      Z        X      Y      Z
     1   1     0.41   0.19   0.00    -0.34   0.19   0.00    -0.17  -0.04  -0.00
     2   8     0.32   0.20  -0.00     0.42   0.08  -0.00    -0.52   0.03   0.00
     3   8     0.18   0.44   0.00    -0.06  -0.27   0.00     0.75  -0.02  -0.00
     4   7    -0.35  -0.40   0.00    -0.14   0.62   0.00    -0.12   0.24  -0.00
     5   8    -0.22  -0.30  -0.00    -0.22  -0.37  -0.00    -0.11  -0.22   0.00
                      7                      8                      9
                     A'                     A'                     A'
 Frequencies --   1371.2486              1677.3373              3778.7020
 Red. masses --      1.1334                13.2085                 1.0675
 Frc consts  --      1.2556                21.8950                 8.9809
 IR Inten    --    153.0282               140.4659                82.5404
  Atom  AN      X      Y      Z        X      Y      Z        X      Y      Z
     1   1     0.99  -0.05  -0.00    -0.35   0.01   0.00     0.10   0.99   0.00
     2   8    -0.03   0.05  -0.00    -0.00  -0.04   0.00    -0.01  -0.06  -0.00
     3   8    -0.02  -0.05   0.00     0.00   0.15  -0.00     0.00   0.00  -0.00
     4   7     0.02   0.01   0.00     0.70  -0.05  -0.00    -0.00  -0.00   0.00
     5   8    -0.03  -0.01  -0.00    -0.59  -0.07   0.00     0.00   0.00   0.00

 -------------------
 - Thermochemistry -
 -------------------
 Temperature   298.150 Kelvin.  Pressure   1.00000 Atm.
 Atom     1 has atomic number  1 and mass   1.00783
 Atom     2 has atomic number  8 and mass  15.99491
 Atom     3 has atomic number  8 and mass  15.99491
 Atom     4 has atomic number  7 and mass  14.00307
 Atom     5 has atomic number  8 and mass  15.99491
 Molecular mass:    62.99564 amu.
 Principal axes and moments of inertia in atomic units:
                           1         2         3
     Eigenvalues --    32.84033 360.14660 392.98694
           X            0.81015  -0.58622   0.00000
           Y            0.58622   0.81015   0.00000
           Z           -0.00000   0.00000   1.00000
 This molecule is an asymmetric top.
 Rotational symmetry number  1.
 Rotational temperatures (Kelvin)      2.63743     0.24050     0.22040
 Rotational constants (GHZ):          54.95502     5.01113     4.59237
    1 imaginary frequencies ignored.
 Zero-point vibrational energy      57432.5 (Joules/Mol)
                                   13.72669 (Kcal/Mol)
 Warning -- explicit consideration of   3 degrees of freedom as
           vibrations may cause significant error
 Vibrational temperatures:    329.51   491.10   649.84  1130.01  1391.68
          (Kelvin)           1972.92  2413.31  5436.71
 
 Zero-point correction=                           0.021875 (Hartree/Particle)
 Thermal correction to Energy=                    0.025993
 Thermal correction to Enthalpy=                  0.026937
 Thermal correction to Gibbs Free Energy=        -0.004247
 Sum of electronic and zero-point Energies=           -280.424860
 Sum of electronic and thermal Energies=              -280.420742
 Sum of electronic and thermal Enthalpies=            -280.419798
 Sum of electronic and thermal Free Energies=         -280.450982
 
                     E (Thermal)             CV                S
                      KCal/Mol        Cal/Mol-Kelvin    Cal/Mol-Kelvin
 Total                   16.311             11.954             65.633
 Electronic               0.000              0.000              0.000
 Translational            0.889              2.981             38.341
 Rotational               0.889              2.981             23.057
 Vibrational             14.533              5.993              4.235
 Vibration     1          0.652              1.797              1.887
 Vibration     2          0.721              1.593              1.206
 Vibration     3          0.810              1.357              0.791
                       Q            Log10(Q)             Ln(Q)
 Total Bot       0.898689D+02          1.953610          4.498352
 Total V=0       0.103596D+13         12.015341         27.666346
 Vib (Bot)       0.187375D-09         -9.727288        -22.397909
 Vib (Bot)    1  0.860381D+00         -0.065309         -0.150380
 Vib (Bot)    2  0.543545D+00         -0.264765         -0.609643
 Vib (Bot)    3  0.379172D+00         -0.421164         -0.969766
 Vib (V=0)       0.215995D+01          0.334444          0.770085
 Vib (V=0)    1  0.149512D+01          0.174675          0.402204
 Vib (V=0)    2  0.123854D+01          0.092910          0.213933
 Vib (V=0)    3  0.112751D+01          0.052121          0.120013
 Electronic      0.100000D+01          0.000000          0.000000
 Translational   0.196526D+08          7.293420         16.793719
 Rotational      0.244050D+05          4.387478         10.102542

     ==================================================
      Anharmonic Data: Displacement Vectors Definition
     ==================================================

 Framework definition based on atomic masses: CS  
 
                                                                title
                                                             IR Spectrum
 
     3                                                                      1         1                                              
     7                                                                      6         3             9     7          4   3   2       
     7                                                                      7         7             6     8          5   4   2       
     9                                                                      7         1             7     5          2   1   9       
 
     X                                                                      X         X             X     X          X   X   X       
     X                                                                      X         X             X     X          X               
     X                                                                      X         X                   X          X               
     X                                                                      X         X                   X          X               
     X                                                                      X         X                   X          X               
     X                                                                      X         X                   X          X               
     X                                                                      X         X                   X          X               
     X                                                                      X         X                   X          X               
                                                                            X         X                   X          X               
                                                                            X         X                   X          X               
                                                                            X         X                   X          X               
                                                                            X         X                   X          X               
                                                                            X         X                   X          X               
                                                                            X         X                   X          X               
                                                                                      X                   X          X               
                                                                                                          X          X               
                                                                                                          X          X               
                                                                                                                     X               
                                                                                                                     X               
                                                                                                                     X               
 
 ***** Axes restored to original set *****
 -------------------------------------------------------------------
 Center     Atomic                   Forces (Hartrees/Bohr)
 Number     Number              X              Y              Z
 -------------------------------------------------------------------
      1        1           0.000067479    0.000000000    0.000002105
      2        8           0.000168231    0.000000000    0.000095120
      3        8          -0.000190334   -0.000000000   -0.000010946
      4        7          -0.000420252   -0.000000000   -0.000159247
      5        8           0.000374877    0.000000000    0.000072969
 -------------------------------------------------------------------
 Cartesian Forces:  Max     0.000420252 RMS     0.000168539
 -----------------------------------------------------------------------------------------------
                       Internal Coordinate Forces (Hartree/Bohr or radian)
  Cent   Atom   N1       Length/X         N2         Alpha/Y        N3         Beta/Z          J
 -----------------------------------------------------------------------------------------------
      1  H 
      2  O        1  -0.000002(     1)
      3  O        2  -0.000246(     2)      1  -0.000124(     5)
      4  N        3  -0.000090(     3)      2  -0.000056(     6)      1  -0.000000(     8)     0
      5  O        4   0.000381(     4)      3  -0.000049(     7)      2   0.000000(     9)     0
 -----------------------------------------------------------------------------------------------
 Internal  Forces:  Max     0.000381259 RMS     0.000161584
 Force constants in Cartesian coordinates: 
                1             2             3             4             5 
      1  0.646470D-01
      2  0.000000D+00 -0.236231D-02
      3  0.530678D-02  0.000000D+00  0.512362D+00
      4 -0.358013D-01  0.000000D+00 -0.163078D-01  0.272815D+00
      5  0.000000D+00  0.305787D-02  0.000000D+00  0.000000D+00  0.211024D-02
      6  0.482515D-01  0.000000D+00 -0.508532D+00  0.335204D-01  0.000000D+00
      7 -0.183484D-01  0.000000D+00  0.125396D-01 -0.220252D+00  0.000000D+00
      8  0.000000D+00  0.993666D-03  0.000000D+00  0.000000D+00 -0.658762D-02
      9 -0.531729D-01  0.000000D+00 -0.483718D-03 -0.194590D-01  0.000000D+00
     10 -0.925685D-02  0.000000D+00 -0.487249D-02 -0.171322D-01  0.000000D+00
     11  0.000000D+00 -0.272049D-02  0.000000D+00  0.000000D+00 -0.492415D-02
     12  0.536688D-02  0.000000D+00 -0.474945D-02  0.115416D-01  0.000000D+00
     13 -0.124039D-02  0.000000D+00  0.333385D-02  0.370891D-03  0.000000D+00
     14  0.000000D+00  0.103127D-02  0.000000D+00  0.000000D+00  0.634367D-02
     15 -0.575222D-02  0.000000D+00  0.140367D-02 -0.929531D-02  0.000000D+00
                6             7             8             9            10 
      6  0.594626D+00
      7 -0.211666D-01  0.341599D+00
      8  0.000000D+00  0.000000D+00  0.423561D-02
      9 -0.785808D-01  0.359354D-01  0.000000D+00  0.181140D+00
     10 -0.525019D-01 -0.781446D-01  0.000000D+00  0.174957D+00  0.828546D+00
     11  0.000000D+00  0.000000D+00  0.852617D-02  0.000000D+00  0.000000D+00
     12  0.171541D-01  0.630584D-01  0.000000D+00 -0.817627D-01 -0.178892D-01
     13 -0.810350D-02 -0.248537D-01  0.000000D+00 -0.138260D+00 -0.724013D+00
     14  0.000000D+00  0.000000D+00 -0.716783D-02  0.000000D+00  0.000000D+00
     15 -0.246671D-01 -0.903669D-01  0.000000D+00 -0.203125D-01 -0.996932D-01
               11            12            13            14            15 
     11  0.855024D-02
     12  0.000000D+00  0.186568D+00
     13  0.000000D+00 -0.620777D-01  0.749736D+00
     14 -0.943178D-02  0.000000D+00  0.000000D+00  0.922467D-02
     15  0.000000D+00 -0.117210D+00  0.205108D+00  0.000000D+00  0.160786D+00
 Force constants in internal coordinates: 
                1             2             3             4             5 
      1  0.512362D+00
      2 -0.103983D-01  0.281329D+00
      3  0.346066D-02  0.248044D-02  0.117209D+00
      4 -0.357788D-02  0.590954D-02  0.153054D+00  0.812079D+00
      5  0.978475D-02  0.653178D-01  0.227920D-02  0.481377D-02  0.216753D+00
      6  0.464929D-02  0.591553D-01  0.409608D-01  0.218468D-01  0.313222D-01
      7 -0.117816D-02  0.377369D-01  0.321875D-01  0.847207D-01  0.213282D-01
      8  0.000000D+00  0.000000D+00  0.000000D+00  0.000000D+00  0.000000D+00
      9  0.000000D+00  0.000000D+00  0.000000D+00  0.000000D+00  0.000000D+00
                6             7             8             9 
      6  0.282732D+00
      7  0.958658D-01  0.482677D+00
      8  0.000000D+00  0.000000D+00 -0.776922D-02
      9  0.000000D+00  0.000000D+00 -0.391317D-02  0.410996D-01
 Leave Link  716 at Mon Feb 28 01:16:36 2022, MaxMem= 16106127360 cpu:               1.0 elap:               0.1
 (Enter /sw/contrib/gaussian/g16/B01/g16/l106.exe)
 NDeriv=      9 NFrqRd=  0 NDerD0=      0 MskFDP=       0 MskDFD=       0 MskDF0=       0
 At 1st pt F.D. properties file   721 does not exist.
 At 1st pt F.D. properties file   722 does not exist.
 D2Numr ... symmetry will not be used.
 Leave Link  106 at Mon Feb 28 01:16:36 2022, MaxMem= 16106127360 cpu:               1.9 elap:               0.1
 (Enter /sw/contrib/gaussian/g16/B01/g16/l301.exe)
 Standard basis: Aug-CC-pVTZ (5D, 7F)
 Ernie: Thresh=  0.10000D-02 Tol=  0.10000D-05 Strict=F.
 Ernie:  12 primitive shells out of 131 were deleted.
   207 basis functions,   315 primitive gaussians,   245 cartesian basis functions
    16 alpha electrons       16 beta electrons
       nuclear repulsion energy       116.8717328501 Hartrees.
 IExCor=    0 DFT=F Ex=HF Corr=None ExCW=0 ScaHFX=  1.000000
 ScaDFX=  1.000000  1.000000  1.000000  1.000000 ScalE2=  1.000000  1.000000
 IRadAn=      5 IRanWt=     -1 IRanGd=            0 ICorTp=0 IEmpDi=  4
 NAtoms=    5 NActive=    5 NUniq=    5 SFac= 1.00D+00 NAtFMM=   60 NAOKFM=F Big=F
 Integral buffers will be    131072 words long.
 Raffenetti 1 integral format.
 Two-electron integral symmetry is turned off.
 Leave Link  301 at Mon Feb 28 01:16:36 2022, MaxMem= 16106127360 cpu:               1.5 elap:               0.1
 (Enter /sw/contrib/gaussian/g16/B01/g16/l302.exe)
 NPDir=0 NMtPBC=     1 NCelOv=     1 NCel=       1 NClECP=     1 NCelD=      1
         NCelK=      1 NCelE2=     1 NClLst=     1 CellRange=     0.0.
 One-electron integrals computed using PRISM.
 NBasis=   207 RedAO= T EigKep=  1.82D-04  NBF=   207
 NBsUse=   207 1.00D-06 EigRej= -1.00D+00 NBFU=   207
 Leave Link  302 at Mon Feb 28 01:16:37 2022, MaxMem= 16106127360 cpu:               5.6 elap:               0.3
 (Enter /sw/contrib/gaussian/g16/B01/g16/l303.exe)
 DipDrv:  MaxL=1.
 Leave Link  303 at Mon Feb 28 01:16:37 2022, MaxMem= 16106127360 cpu:               1.4 elap:               0.1
 (Enter /sw/contrib/gaussian/g16/B01/g16/l401.exe)
 Initial guess from the checkpoint file:  "hoono_eq_anharm.chk"
 B after Tr=     0.000000    0.000000   -0.000273
         Rot=    1.000000    0.000230    0.000048   -0.000000 Ang=   0.03 deg.
 Guess basis will be translated and rotated to current coordinates.
 JPrj=2 DoOrth=T DoCkMO=T.
 Leave Link  401 at Mon Feb 28 01:16:37 2022, MaxMem= 16106127360 cpu:               3.3 elap:               0.1
 (Enter /sw/contrib/gaussian/g16/B01/g16/l502.exe)
 Keep R1 ints in memory in canonical form, NReq=245616376.
 FoFCou: FMM=F IPFlag=           0 FMFlag=           0 FMFlg1=           0
         NFxFlg=           0 DoJE=F BraDBF=F KetDBF=F FulRan=T
         wScrn=  0.000000 ICntrl=       600 IOpCl=  0 I1Cent=           0 NGrid=           0
         NMat0=    1 NMatS0=  21528 NMatT0=    0 NMatD0=    1 NMtDS0=    0 NMtDT0=    0
 Symmetry not used in FoFCou.
 Two-electron integral symmetry not used.
 Closed shell SCF:
 Using DIIS extrapolation, IDIIS=  1040.
 NGot= 16106127360 LenX= 15874260768 LenY= 15874200302
 Requested convergence on RMS density matrix=1.00D-08 within 128 cycles.
 Requested convergence on MAX density matrix=1.00D-06.
 Requested convergence on             energy=1.00D-06.
 No special actions if energy rises.

 Cycle   1  Pass 1  IDiag  1:
 E= -279.501669899476    
 DIIS: error= 2.54D-04 at cycle   1 NSaved=   1.
 NSaved= 1 IEnMin= 1 EnMin= -279.501669899476     IErMin= 1 ErrMin= 2.54D-04
 ErrMax= 2.54D-04  0.00D+00 EMaxC= 1.00D-01 BMatC= 1.47D-05 BMatP= 1.47D-05
 IDIUse=3 WtCom= 9.97D-01 WtEn= 2.54D-03
 Coeff-Com:  0.100D+01
 Coeff-En:   0.100D+01
 Coeff:      0.100D+01
 Gap=     0.946 Goal=   None    Shift=    0.000
 RMSDP=1.88D-05 MaxDP=1.03D-03              OVMax= 1.08D-03

 Cycle   2  Pass 1  IDiag  1:
 E= -279.501684006560     Delta-E=       -0.000014107084 Rises=F Damp=F
 DIIS: error= 5.13D-05 at cycle   2 NSaved=   2.
 NSaved= 2 IEnMin= 2 EnMin= -279.501684006560     IErMin= 2 ErrMin= 5.13D-05
 ErrMax= 5.13D-05  0.00D+00 EMaxC= 1.00D-01 BMatC= 8.12D-07 BMatP= 1.47D-05
 IDIUse=1 WtCom= 1.00D+00 WtEn= 0.00D+00
 Coeff-Com: -0.215D+00 0.121D+01
 Coeff:     -0.215D+00 0.121D+01
 Gap=     0.502 Goal=   None    Shift=    0.000
 RMSDP=6.07D-06 MaxDP=4.17D-04 DE=-1.41D-05 OVMax= 5.06D-04

 Cycle   3  Pass 1  IDiag  1:
 E= -279.501685459873     Delta-E=       -0.000001453313 Rises=F Damp=F
 DIIS: error= 1.81D-05 at cycle   3 NSaved=   3.
 NSaved= 3 IEnMin= 3 EnMin= -279.501685459873     IErMin= 3 ErrMin= 1.81D-05
 ErrMax= 1.81D-05  0.00D+00 EMaxC= 1.00D-01 BMatC= 4.84D-08 BMatP= 8.12D-07
 IDIUse=1 WtCom= 1.00D+00 WtEn= 0.00D+00
 Coeff-Com:  0.436D-01-0.368D+00 0.132D+01
 Coeff:      0.436D-01-0.368D+00 0.132D+01
 Gap=     0.502 Goal=   None    Shift=    0.000
 RMSDP=1.81D-06 MaxDP=1.01D-04 DE=-1.45D-06 OVMax= 2.11D-04

 Cycle   4  Pass 1  IDiag  1:
 E= -279.501685624592     Delta-E=       -0.000000164719 Rises=F Damp=F
 DIIS: error= 6.46D-06 at cycle   4 NSaved=   4.
 NSaved= 4 IEnMin= 4 EnMin= -279.501685624592     IErMin= 4 ErrMin= 6.46D-06
 ErrMax= 6.46D-06  0.00D+00 EMaxC= 1.00D-01 BMatC= 6.61D-09 BMatP= 4.84D-08
 IDIUse=1 WtCom= 1.00D+00 WtEn= 0.00D+00
 Coeff-Com:  0.464D-02-0.132D-01-0.272D+00 0.128D+01
 Coeff:      0.464D-02-0.132D-01-0.272D+00 0.128D+01
 Gap=     0.502 Goal=   None    Shift=    0.000
 RMSDP=7.41D-07 MaxDP=3.40D-05 DE=-1.65D-07 OVMax= 9.64D-05

 Cycle   5  Pass 1  IDiag  1:
 E= -279.501685652976     Delta-E=       -0.000000028384 Rises=F Damp=F
 DIIS: error= 4.13D-06 at cycle   5 NSaved=   5.
 NSaved= 5 IEnMin= 5 EnMin= -279.501685652976     IErMin= 5 ErrMin= 4.13D-06
 ErrMax= 4.13D-06  0.00D+00 EMaxC= 1.00D-01 BMatC= 1.87D-09 BMatP= 6.61D-09
 IDIUse=1 WtCom= 1.00D+00 WtEn= 0.00D+00
 Coeff-Com: -0.690D-02 0.631D-01-0.272D+00 0.231D+00 0.985D+00
 Coeff:     -0.690D-02 0.631D-01-0.272D+00 0.231D+00 0.985D+00
 Gap=     0.502 Goal=   None    Shift=    0.000
 RMSDP=3.45D-07 MaxDP=1.11D-05 DE=-2.84D-08 OVMax= 5.54D-05

 Cycle   6  Pass 1  IDiag  1:
 E= -279.501685660079     Delta-E=       -0.000000007103 Rises=F Damp=F
 DIIS: error= 2.81D-06 at cycle   6 NSaved=   6.
 NSaved= 6 IEnMin= 6 EnMin= -279.501685660079     IErMin= 6 ErrMin= 2.81D-06
 ErrMax= 2.81D-06  0.00D+00 EMaxC= 1.00D-01 BMatC= 6.74D-10 BMatP= 1.87D-09
 IDIUse=1 WtCom= 1.00D+00 WtEn= 0.00D+00
 Coeff-Com: -0.391D-02 0.282D-01-0.235D-01-0.241D+00 0.245D+00 0.995D+00
 Coeff:     -0.391D-02 0.282D-01-0.235D-01-0.241D+00 0.245D+00 0.995D+00
 Gap=     0.502 Goal=   None    Shift=    0.000
 RMSDP=2.36D-07 MaxDP=6.08D-06 DE=-7.10D-09 OVMax= 4.10D-05

 Cycle   7  Pass 1  IDiag  1:
 E= -279.501685663152     Delta-E=       -0.000000003074 Rises=F Damp=F
 DIIS: error= 1.78D-06 at cycle   7 NSaved=   7.
 NSaved= 7 IEnMin= 7 EnMin= -279.501685663152     IErMin= 7 ErrMin= 1.78D-06
 ErrMax= 1.78D-06  0.00D+00 EMaxC= 1.00D-01 BMatC= 2.21D-10 BMatP= 6.74D-10
 IDIUse=1 WtCom= 1.00D+00 WtEn= 0.00D+00
 Coeff-Com:  0.275D-02-0.236D-01 0.679D-01 0.677D-01-0.456D+00-0.403D+00
 Coeff-Com:  0.174D+01
 Coeff:      0.275D-02-0.236D-01 0.679D-01 0.677D-01-0.456D+00-0.403D+00
 Coeff:      0.174D+01
 Gap=     0.502 Goal=   None    Shift=    0.000
 RMSDP=2.53D-07 MaxDP=6.90D-06 DE=-3.07D-09 OVMax= 4.50D-05

 Cycle   8  Pass 1  IDiag  1:
 E= -279.501685664965     Delta-E=       -0.000000001812 Rises=F Damp=F
 DIIS: error= 7.31D-07 at cycle   8 NSaved=   8.
 NSaved= 8 IEnMin= 8 EnMin= -279.501685664965     IErMin= 8 ErrMin= 7.31D-07
 ErrMax= 7.31D-07  0.00D+00 EMaxC= 1.00D-01 BMatC= 5.35D-11 BMatP= 2.21D-10
 IDIUse=1 WtCom= 1.00D+00 WtEn= 0.00D+00
 Coeff-Com:  0.156D-02-0.120D-01 0.153D-01 0.931D-01-0.164D+00-0.381D+00
 Coeff-Com:  0.369D+00 0.108D+01
 Coeff:      0.156D-02-0.120D-01 0.153D-01 0.931D-01-0.164D+00-0.381D+00
 Coeff:      0.369D+00 0.108D+01
 Gap=     0.502 Goal=   None    Shift=    0.000
 RMSDP=1.15D-07 MaxDP=3.24D-06 DE=-1.81D-09 OVMax= 2.10D-05

 Cycle   9  Pass 1  IDiag  1:
 E= -279.501685665311     Delta-E=       -0.000000000346 Rises=F Damp=F
 DIIS: error= 2.52D-07 at cycle   9 NSaved=   9.
 NSaved= 9 IEnMin= 9 EnMin= -279.501685665311     IErMin= 9 ErrMin= 2.52D-07
 ErrMax= 2.52D-07  0.00D+00 EMaxC= 1.00D-01 BMatC= 8.85D-12 BMatP= 5.35D-11
 IDIUse=1 WtCom= 1.00D+00 WtEn= 0.00D+00
 Coeff-Com: -0.438D-03 0.400D-02-0.122D-01-0.126D-01 0.947D-01 0.746D-01
 Coeff-Com: -0.403D+00 0.362D-01 0.122D+01
 Coeff:     -0.438D-03 0.400D-02-0.122D-01-0.126D-01 0.947D-01 0.746D-01
 Coeff:     -0.403D+00 0.362D-01 0.122D+01
 Gap=     0.502 Goal=   None    Shift=    0.000
 RMSDP=5.15D-08 MaxDP=1.49D-06 DE=-3.46D-10 OVMax= 9.59D-06

 Cycle  10  Pass 1  IDiag  1:
 E= -279.501685665368     Delta-E=       -0.000000000057 Rises=F Damp=F
 DIIS: error= 9.00D-08 at cycle  10 NSaved=  10.
 NSaved=10 IEnMin=10 EnMin= -279.501685665368     IErMin=10 ErrMin= 9.00D-08
 ErrMax= 9.00D-08  0.00D+00 EMaxC= 1.00D-01 BMatC= 1.46D-12 BMatP= 8.85D-12
 IDIUse=1 WtCom= 1.00D+00 WtEn= 0.00D+00
 Coeff-Com: -0.210D-03 0.170D-02-0.207D-02-0.166D-01 0.340D-01 0.659D-01
 Coeff-Com: -0.102D+00-0.140D+00 0.181D+00 0.978D+00
 Coeff:     -0.210D-03 0.170D-02-0.207D-02-0.166D-01 0.340D-01 0.659D-01
 Coeff:     -0.102D+00-0.140D+00 0.181D+00 0.978D+00
 Gap=     0.502 Goal=   None    Shift=    0.000
 RMSDP=1.03D-08 MaxDP=2.51D-07 DE=-5.72D-11 OVMax= 1.61D-06

 Cycle  11  Pass 1  IDiag  1:
 E= -279.501685665372     Delta-E=       -0.000000000004 Rises=F Damp=F
 DIIS: error= 4.48D-08 at cycle  11 NSaved=  11.
 NSaved=11 IEnMin=11 EnMin= -279.501685665372     IErMin=11 ErrMin= 4.48D-08
 ErrMax= 4.48D-08  0.00D+00 EMaxC= 1.00D-01 BMatC= 5.09D-13 BMatP= 1.46D-12
 IDIUse=1 WtCom= 1.00D+00 WtEn= 0.00D+00
 Coeff-Com:  0.913D-04-0.869D-03 0.379D-02-0.314D-02-0.172D-01 0.193D-02
 Coeff-Com:  0.853D-01-0.567D-01-0.289D+00 0.267D+00 0.101D+01
 Coeff:      0.913D-04-0.869D-03 0.379D-02-0.314D-02-0.172D-01 0.193D-02
 Coeff:      0.853D-01-0.567D-01-0.289D+00 0.267D+00 0.101D+01
 Gap=     0.502 Goal=   None    Shift=    0.000
 RMSDP=6.10D-09 MaxDP=1.48D-07 DE=-3.98D-12 OVMax= 7.50D-07

 SCF Done:  E(RHF) =  -279.501685665     A.U. after   11 cycles
            NFock= 11  Conv=0.61D-08     -V/T= 2.0024
 KE= 2.788452401582D+02 PE=-8.950701654979D+02 EE= 2.198515068243D+02
 Leave Link  502 at Mon Feb 28 01:16:42 2022, MaxMem= 16106127360 cpu:              33.8 elap:               4.9
 (Enter /sw/contrib/gaussian/g16/B01/g16/l801.exe)
 ExpMin= 2.53D-02 ExpMax= 1.53D+04 ExpMxC= 5.22D+02 IAcc=3 IRadAn=         5 AccDes= 0.00D+00
 HarFok:  IExCor=  205 AccDes= 0.00D+00 IRadAn=         5 IDoV=-2 UseB2=F ITyADJ=14
 ICtDFT= 12500011 ScaDFX=  1.000000  1.000000  1.000000  1.000000
 Largest valence mixing into a core orbital is  2.08D-04
 Largest core mixing into a valence orbital is  3.63D-05
 Range of M.O.s used for correlation:     5   207
 NBasis=   207 NAE=    16 NBE=    16 NFC=     4 NFV=     0
 NROrb=    203 NOA=    12 NOB=    12 NVA=   191 NVB=   191

 **** Warning!!: The largest alpha MO coefficient is  0.17661704D+02

 Leave Link  801 at Mon Feb 28 01:16:42 2022, MaxMem= 16106127360 cpu:               1.3 elap:               0.1
 (Enter /sw/contrib/gaussian/g16/B01/g16/l906.exe)
 Frozen-core derivative calculation, NFC=   4 NFV=   0.
 FulOut=F Deriv=T AODrv=T NAtomX=     5
   MMem=           0  MDisk=          12 MDiskD=          12
  W3Min=      811440 MinDsk=     2425030 NBas6D=         245
 NBas2D=       30762    NTT=       30135    LW2=     7400000
    MDV= 16105638402 MDiskM=      328645 NBas2p=       30702
 Disk-based method using ON**2 memory for 12 occupieds at a time.
 Permanent disk used for amplitudes=    11516536 words.
 Estimated scratch disk usage=   321251614 words.
 IMap=   1   2   3   4   5   6   7   8   9  10  11  12  13  14  15  16
 Actual    scratch disk usage=   310331678 words.
 JobTyp=1 Pass  1:  I=   5 to  16 NPSUse= 28 ParTrn=T ParDer=T DoDerP=T.
 (rs|ai) integrals will be sorted in core.
 Spin components of T(2) and E(2):
     alpha-alpha T2 =       0.3402538552D-01 E2=     -0.1224056445D+00
     alpha-beta  T2 =       0.1868508813D+00 E2=     -0.7002382954D+00
     beta-beta   T2 =       0.3402538552D-01 E2=     -0.1224056445D+00
 The integrals were generated   1 times.
 ANorm=    0.1120223930D+01
 E2 =    -0.9450495843D+00 EUMP2 =    -0.28044673524971D+03
 Leave Link  906 at Mon Feb 28 01:18:18 2022, MaxMem= 16106127360 cpu:            2694.9 elap:              96.5
 (Enter /sw/contrib/gaussian/g16/B01/g16/l1101.exe)
 Using compressed Sx but separate Hx and Fx, NAtomX=     5.
 Will process      6 centers per pass.
 Leave Link 1101 at Mon Feb 28 01:18:19 2022, MaxMem= 16106127360 cpu:               4.6 elap:               0.2
 (Enter /sw/contrib/gaussian/g16/B01/g16/l1102.exe)
 Leave Link 1102 at Mon Feb 28 01:18:19 2022, MaxMem= 16106127360 cpu:               1.5 elap:               0.1
 (Enter /sw/contrib/gaussian/g16/B01/g16/l1110.exe)
 Forming Gx(P) for the SCF density, NAtomX=     5.
 Integral derivatives from FoFJK, PRISM(SPDF).
 Do as many integral derivatives as possible in FoFJK.
 G2DrvN: MDV=   16106126844.
 G2DrvN: will do     6 centers at a time, making    1 passes.
 Calling FoFCou, ICntrl=  3107 FMM=F I1Cent=   0 AccDes= 0.00D+00.
 FoFJK:  IHMeth= 1 ICntrl=    3107 DoSepK=F KAlg= 0 I1Cent=           0 FoldK=F
 IRaf=         0 NMat=       1 IRICut=       1 DoRegI=T DoRafI=F ISym2E= 0 IDoP0=0 IntGTp=1.
 FoFCou: FMM=F IPFlag=           0 FMFlag=      100000 FMFlg1=           0
         NFxFlg=           0 DoJE=F BraDBF=F KetDBF=F FulRan=T
         wScrn=  0.000000 ICntrl=      3107 IOpCl=  0 I1Cent=           0 NGrid=           0
         NMat0=    1 NMatS0=      1 NMatT0=    0 NMatD0=    1 NMtDS0=    0 NMtDT0=    0
 Symmetry not used in FoFCou.
 End of G2Drv F.D. properties file   721 does not exist.
 End of G2Drv F.D. properties file   722 does not exist.
 End of G2Drv F.D. properties file   788 does not exist.
 Leave Link 1110 at Mon Feb 28 01:18:22 2022, MaxMem= 16106127360 cpu:              76.9 elap:               2.8
 (Enter /sw/contrib/gaussian/g16/B01/g16/l1002.exe)
 Minotr:  Closed shell wavefunction.
          IDoAtm=11111
          Frozen-core window.
          Direct CPHF calculation.
          Differentiating once with respect to electric field.
                with respect to dipole field.
          Differentiating once with respect to nuclear coordinates.
          Requested convergence is 1.0D-08 RMS, and 1.0D-07 maximum.
          Secondary convergence is 1.0D-12 RMS, and 1.0D-12 maximum.
          NewPWx=T KeepS1=T KeepF1=T KeepIn=T MapXYZ=F SortEE=F KeepMc=T.
 Keep R1 ints in memory in canonical form, NReq=245617617.
 FoFCou: FMM=F IPFlag=           0 FMFlag=           0 FMFlg1=           0
         NFxFlg=           0 DoJE=F BraDBF=F KetDBF=F FulRan=T
         wScrn=  0.000000 ICntrl=       600 IOpCl=  0 I1Cent=           0 NGrid=           0
         NMat0=    1 NMatS0=  21528 NMatT0=    0 NMatD0=    1 NMtDS0=    0 NMtDT0=    0
 Symmetry not used in FoFCou.
 Two-electron integral symmetry not used.
          MDV=   16106127360 using IRadAn=       4.
[...]

 ----------------------------------------------------------------------
 1\1\GINC-N2398\Freq\RMP2-FC\Aug-CC-pVTZ\H1N1O3\CGAVINH\28-Feb-2022\1\\
 #p freq=anharm mp2/aug-cc-pvtz density=current\\title\\0,1\H\O,1,r1\O,
 2,r2,1,a1\N,3,r3,2,a2,1,d1,0\O,4,r4,3,a3,2,d2,0\\r1=0.96897556\r2=1.45
 491931\r3=1.45878406\r4=1.17072885\a1=97.59494903\a2=102.29752444\a3=1
 09.06955123\d1=180.\d2=180.\\Version=ES64L-G16RevB.01\State=1-A'\HF=-2
 79.5016879\MP2=-280.4467348\RMSD=3.790e-09\RMSF=1.685e-04\ZeroPoint=0.
 0218749\Thermal=0.0259927\Dipole=-0.1464888,0.,-0.5523993\DipoleDeriv=
 0.2663685,0.,0.0482902,0.,0.3555537,0.,0.0821419,0.,0.2755805,-0.32808
 79,0.,-0.2069268,0.,-0.3142198,0.,-0.1111105,0.,-0.2224381,-0.0463688,
 0.,0.1480685,0.,-0.0868224,0.,-0.7524083,0.,-1.3535993,0.8948553,0.,0.
 9093479,0.,0.0660762,0.,0.9229415,0.,1.6693974,-0.7867672,0.,-0.898779
 7,0.,-0.0205877,0.,-0.1415646,0.,-0.3689405\Polar=32.1160801,0.,17.927
 4769,9.6552903,0.,32.1375078\Quadrupole=-1.5136515,-0.7276028,2.241254
 3,0.,2.0945242,0.\PG=CS [SG(H1N1O3)]\NImag=1\\0.06464702,0.,-0.0023623
 1,0.00530678,0.,0.51236175,-0.03580133,0.,-0.01630776,0.27281492,0.,0.
 00305787,0.,0.,0.00211024,0.04825151,0.,-0.50853225,0.03352043,0.,0.59
 462603,-0.01834845,0.,0.01253962,-0.22025230,0.,-0.02116656,0.34159899
 ,0.,0.00099367,0.,0.,-0.00658762,0.,0.,0.00423561,-0.05317294,0.,-0.00
 048372,-0.01945898,0.,-0.07858083,0.03593544,0.,0.18113978,-0.00925685
 ,0.,-0.00487249,-0.01713218,0.,-0.05250188,-0.07814459,0.,0.17495677,0
 .82854633,0.,-0.00272049,0.,0.,-0.00492415,0.,0.,0.00852617,0.,0.,0.00
 855024,0.00536688,0.,-0.00474945,0.01154161,0.,0.01715411,0.06305840,0
 .,-0.08176269,-0.01788919,0.,0.18656836,-0.00124039,0.,0.00333385,0.00
 037089,0.,-0.00810350,-0.02485366,0.,-0.13826030,-0.72401272,0.,-0.062
 07770,0.74973587,0.,0.00103127,0.,0.,0.00634367,0.,0.,-0.00716783,0.,0
 .,-0.00943178,0.,0.,0.00922467,-0.00575222,0.,0.00140367,-0.00929531,0
 .,-0.02466706,-0.09036690,0.,-0.02031255,-0.09969321,0.,-0.11721033,0.
 20510765,0.,0.16078627\\-0.00006748,0.,-0.00000211,-0.00016823,0.,-0.0
 0009512,0.00019033,0.,0.00001095,0.00042025,0.,0.00015925,-0.00037488,
 0.,-0.00007297\\0.,0.00542423,0.,0.,-0.28010538,0.,0.,-0.00221622,0.,0
 .,-0.03057913,0.,0.27833835,0.02058615,0.,0.,0.28683443,0.,0.,-0.30304
 192,0.,0.,0.00065705,0.,0.,0.00533708,0.,0.,0.02291384,0.,0.00281776,-
 0.01298646,0.,0.01195210,-0.01363389,0.,0.,-0.00389065,0.,0.,0.0215321
 6,0.,0.,-0.01338313,0.,0.,-0.00109240,0.,0.,0.00125649,0.,0.,0.0081518
 8,0.,0.,0.00401553,0.,-0.00132902,-0.00828140,0.,0.00617211,0.01134464
 ,0.,-0.00870675,-0.03114757,0.,0.,-0.00085363,0.,0.,0.00026110,0.,0.,-
 0.00266616,0.,0.,0.00373080,0.,0.,-0.00277266,0.,0.,0.00339941,0.,0.,-
 0.00444537,0.,0.,0.02406879,0.,0.,-0.00177447,0.,0.00027830,0.00289793
 ,0.,-0.00191673,-0.00370487,0.,0.00444837,0.02283160,0.,-0.00047211,-0
 .02025018,0.,0.,-0.00198477,0.,0.,0.00291032,0.,0.,0.00127943,0.,0.,0.
 00013286,0.,0.,-0.00233783,0.,0.,-0.00523166,0.,0.,-0.02317574,0.,0.,0
 .00441773,0.,0.,0.00107270,0.,0.02374516,-0.01806307,0.,0.,0.01931796,
 0.,0.,-0.02800645,0.,0.,0.00039156,0.,0.,0.01344886,0.,0.,0.00480000,0
 .,-0.00069111,0.01322054,0.,0.00931962,-0.00715107,0.,0.,0.00392889,0.
 ,0.,0.00791624,0.,0.,-0.01443527,0.,0.,0.00060352,0.,0.,0.00395085,0.,
 0.,-0.01296952,0.,0.,-0.00047799,0.,-0.00029172,-0.00158413,0.,0.00044
 062,-0.00346645,0.,0.01669828,0.10766911,0.,0.,-0.00027621,0.,0.,-0.00
 502134,0.,0.,0.01600352,0.,0.,-0.00050174,0.,0.,-0.00018115,0.,0.,-0.0
 0040935,0.,0.,0.00210005,0.,0.,-0.10214054,0.,0.,-0.00016305,0.,0.0004
 1341,0.00200892,0.,-0.00107176,-0.00322289,0.,-0.01410814,-0.09925396,
 0.,-0.01020424,0.10063098,0.,0.,0.00020509,0.,0.,0.00136639,0.,0.,-0.0
 1019676,0.,0.,-0.01634544,0.,0.,0.02497072,0.,0.00022026,0.,-0.0003295
 1,-0.05242070,0.,0.00027465,-0.00234554,0.,0.05579464,-0.01000658,0.,-
 0.00023760,0.,0.,0.00187233,0.05633620,0.,0.00383776,-0.05356247,0.,-0
 .00548410,0.00230778,0.,-0.00305188,-0.00232168,0.,-0.01123496,0.01542
 028,0.,0.00097036,0.,0.,0.00096499,0.,0.,-0.00545668,-0.00607692,0.,-0
 .00560343,-0.00430820,0.,-0.01378870,0.01364963,0.,0.05023978,0.001929
 92,0.,-0.00028602,0.01505757,0.,0.01466349,0.00119565,0.,-0.00338083,-
 0.04402374,0.,-0.00038428,0.,0.,-0.00371107,0.,0.,0.00336666,0.,0.,0.0
 0512218,0.00256285,0.,0.00261938,0.00055733,0.,0.01711948,0.01248051,0
 .,-0.03500074,-0.07280952,0.,-0.00615020,-0.00211242,0.,-0.00003604,-0
 .00038378,0.,-0.00620226,-0.01660202,0.,0.00011632,0.02584059,0.,0.057
 20883,-0.00674237,0.,-0.00001897,0.,0.,0.00111134,0.,0.,0.00015467,0.,
 0.,-0.00439348,0.,0.,0.00314644,-0.00040143,0.,-0.00112836,0.00151869,
 0.,-0.00168444,-0.01184329,0.,0.00415310,0.06181288,0.,0.02141209,-0.0
 5108684,0.,-0.02275239,0.00398439,0.,0.00090120,-0.00506115,0.,0.00036
 012,-0.00498331,0.,0.00473078,0.03699981,0.,-0.00102492,0.,0.,-0.00100
 885,0.01126816,0.,0.00193371,0.00997427,0.,0.02052368,0.00398568,0.,0.
 00125378,-0.02046390,0.,0.00318273,0.04825373,0.,-0.00047911,0.,0.,0.0
 0021561,0.,0.,-0.00497158,-0.00360424,0.,-0.00048749,-0.00689266,0.,-0
 .00815072,0.02697288,0.,0.11579519,-0.00339364,0.,-0.00066138,-0.01281
 307,0.,-0.02491153,-0.02519797,0.,0.00012082,-0.05202893,0.,0.00052191
 ,0.,0.,-0.00016135,0.,0.,0.00364047,0.,0.,-0.00074904,-0.00275579,0.,-
 0.00250058,-0.00297234,0.,-0.01372943,-0.00859693,0.,-0.08088087,-0.00
 145868,0.,0.09293814,0.00040688,0.,-0.00026203,0.00126047,0.,0.0004863
 7,-0.00657754,0.,-0.01659681,0.09343361,0.,0.01578374,-0.08852342,0.,0
 .00008092,0.,0.,0.00197952,0.,0.,0.00159461,0.,0.,-0.00325199,0.,0.,-0
 .00040306,0.00015302,0.,0.00069425,-0.00484006,0.,-0.00057724,-0.02281
 246,0.,-0.02627611,0.02691077,0.,0.00417275,0.00058873,0.,0.02198635,0
 .00157299,0.,-0.00217692,0.05074946,0.,0.01104206,0.00241329,0.,-0.052
 88782,0.11134924,0.,0.00363049,0.,0.,-0.02064868,-0.04968888,0.,-0.017
 64520,0.07790651,0.,0.01535651,-0.00585430,0.,0.00054379,-0.09967903,0
 .,-0.02593352,0.09341518,0.,-0.00068861,0.,0.,0.01140802,0.,0.,0.00194
 538,-0.00365152,0.,0.00378845,-0.01962719,0.,0.00450567,0.03855587,0.,
 -0.08813329,0.00433487,0.,0.00093104,-0.00933931,0.,0.00586178,0.02550
 257,0.,-0.01933859,0.15084986,0.,-0.00128762,0.,0.,0.00786204,0.,0.,-0
 .02640991,0.,0.,0.02194252,0.00411215,0.,0.00365482,0.00132836,0.,0.00
 516520,-0.01105262,0.,0.07042431,-0.00063819,0.,-0.09510356,-0.0024668
 5,0.,0.00066352,-0.00474420,0.,-0.00814590,-0.01338441,0.,0.00406143,-
 0.17134799,0.,0.00625030,0.19194344,0.,0.00052266,0.,0.,-0.00225187,0.
 ,0.,0.01374512,0.,0.,-0.00210703,0.,0.,-0.00990888,-0.00152120,0.,-0.0
 0084013,-0.00671987,0.,-0.00738219,-0.00211353,0.,0.00941486,0.0131839
 6,0.,0.01585923,-0.00282936,0.,-0.01705178,-0.01428938,0.,0.00257859,-
 0.02536958,0.,-0.01233962,0.00059522,0.,0.02560033,-0.23220593,0.,-0.0
 0241067,0.,0.,0.02823349,0.00795326,0.,0.01307964,-0.06099543,0.,-0.02
 378708,0.01391145,0.,0.00008914,0.23073681,0.,0.04082503,-0.24167318,0
 .,-0.00192714,0.,0.,-0.02716959,0.,0.,0.03442843,0.02145460,0.,0.00061
 187,0.03765438,0.,0.01804139,-0.02067357,0.,-0.02218339,-0.00107351,0.
 ,0.00077646,-0.00360593,0.,0.01309653,0.01280370,0.,-0.02588276,0.0417
 3358,0.,0.00241125,0.,0.,0.00289138,0.,0.,-0.01861080,0.,0.,0.01757076
 ,-0.00419611,0.,-0.00113600,-0.00116128,0.,-0.00917637,-0.00677070,0.,
 0.02399661,0.00873770,0.,-0.02612550,0.00085622,0.,-0.00109634,0.00447
 983,0.,-0.00087939,-0.01577878,0.,-0.01255265,-0.04985784,0.,0.0033903
 9,0.06030057,0.,-0.00065203,0.,0.,-0.00154461,0.,0.,0.01327910,0.,0.,-
 0.00426259,0.,0.,-0.00681986,0.00015784,0.,-0.00021589,-0.00109800,0.,
 0.00184242,-0.01346990,0.,-0.02046648,0.00327208,0.,0.01244126,0.01113
 799,0.,0.00639869,0.01975325,0.,0.00606687,-0.18436577,0.,-0.00307351,
 0.03683471,0.,0.21283571,-0.03411996,0.,-0.03262605,0.,0.,0.04821185,0
 .20745106,0.,0.04643026,-0.18039328,0.,-0.07930091,-0.05543601,0.,-0.0
 2012608,-0.00113350,0.,-0.03503215,0.05083473,0.,0.02455323,0.,0.,-0.0
 1528587,0.,0.,-0.00567234,-0.01451379,0.,-0.04165550,-0.04691151,0.,0.
 04412200,0.06970035,0.,-0.03128147,-0.00381628,0.,-0.00728696,0.005518
 96,0.,0.00077485,0.00085913,0.,0.00028307,0.15012963,0.,0.00360884,0.,
 0.,-0.00133211,0.,0.,-0.00796902,0.,0.,-0.00591035,-0.00896872,0.,0.00
 167008,0.01824375,0.,-0.01502268,-0.01690209,0.,0.02559013,0.04866828,
 0.,-0.00816302,0.00266432,0.,-0.00105690,-0.00710021,0.,0.00719951,0.0
 0487565,0.,-0.00855812,-0.15269144,0.,-0.04104122,0.15225168,0.,-0.001
 60289,0.,0.,0.00103218,0.,0.,0.00437401,0.,0.,0.01160265,0.,0.,-0.0154
 0594,0.00039721,0.,-0.00337132,-0.00377467,0.,0.00377133,0.00235997,0.
 ,0.00322484,-0.04243923,0.,-0.00407452,0.04345673,0.,0.00044967,-0.004
 29619,0.,-0.00101856,0.01526638,0.,0.00412552,-0.00237093,0.,-0.019870
 24,-0.00501435,0.,0.00477022,0.,0.,-0.00474494,-0.02036127,0.,-0.01001
 290,0.00639626,0.,0.00196633,0.00579590,0.,0.00364697,-0.00508440,0.,0
 .00498733,-0.00155063,0.,-0.00320548,0.,0.,0.00340011,0.,0.,-0.0245045
 3,0.00089730,0.,0.00521928,0.00779301,0.,-0.00973340,-0.01242626,0.,0.
 04701809,0.00117469,0.,-0.00023246,0.01049660,0.,0.00951262,0.00434031
 ,0.,0.07443435,1.11319205,0.,-0.00084820,0.,0.,-0.00491321,0.,0.,0.030
 49856,0.,0.,-0.15364569,0.00606330,0.,0.00025156,0.00324887,0.,0.02548
 390,0.03463619,0.,-0.03280094,0.20555476,0.,-0.00914357,-0.00030347,0.
 ,0.00118935,0.00197308,0.,-0.00053494,-0.00350118,0.,-0.07069839,-1.12
 920365,0.,-0.24950311,1.13103522,0.,0.00030202,0.,0.,0.00148781,0.,0.,
 -0.00618866,0.,0.,0.12890854,0.,0.,-0.12450972,-0.00186570,0.,0.000416
 54,0.00243210,0.,-0.00770393,-0.03084422,0.,-0.00970303,-0.28926928,0.
 ,0.01620905,0.31954710,0.,0.00078137,-0.20135284,0.,-0.29034970,0.0011
 6884,0.,1.91035440,0.22687585,0.,-0.01469956,-0.25930547,0.,0.28964893
 ,0.,0.,-0.28297433,0.04238164,0.,-1.91324779,-0.02073965,0.,1.93653282
 ,-0.01713838,0.,0.01278222,0.02191117,0.,-0.01836059,-0.00389299,0.,0.
 00179135,0.,0.,-0.00745406,0.,0.,0.00403980,-0.04234045,0.,0.00628555,
 0.02891955,0.,-0.02530584,0.00959599,0.,0.02329983,-0.00686737,0.,-0.0
 0022407,0.00629159,0.,-0.00114185,0.00283453,0.,0.00330761,-0.00844221
 ,0.,-0.00148812,0.,0.,0.00121439,0.,0.,0.00232578,0.,0.,-0.00090220,0.
 00220925,0.,-0.00497698,0.00351861,0.,0.00351685,-0.00519406,0.,-0.006
 99353,-0.00348794,0.,0.01275622,-0.00151725,0.,0.00097258,0.00422687,0
 .,-0.00213954,-0.00371433,0.,0.00051730,0.00618346,0.,0.00295414,-0.00
 517874,0.,0.00039753,0.,0.,-0.00043493,0.,0.,-0.00070287,0.,0.,-0.0011
 4984,0.,0.,0.00189011,-0.00341928,0.,0.00158481,0.00300105,0.,-0.00149
 604,0.00117644,0.,0.00271399,0.00154625,0.,-0.00430256,-0.00230447,0.,
 0.00149980,0.10654662,0.,0.46373390,0.00644680,-0.00000001,-1.31001135
 ,-0.11027613,0.,0.00421120,0.10308105,0.,-0.47084346,0.00000001,0.,0.4
 9559925,-0.04261949,0.00000001,1.31544744,0.03238960,-0.00000002,-1.34
 685661,-0.00425452,0.,-0.00727972,0.01760745,0.,0.00471862,-0.01399001
 ,0.,0.00270206,0.,0.,-0.01947195,0.,0.,0.01772592,0.03566099,0.,-0.003
 70758,-0.02595441,0.,0.03034965,-0.00669165,0.,-0.02833040,0.00697976,
 0.,-0.00065676,-0.00791302,0.,0.00319996,-0.00007052,0.,-0.00798627,-0
 .00448082,0.,0.00628505,0.,0.,-0.00791336,0.,0.,-0.00209235,0.,0.,0.00
 608993,-0.00346034,0.,0.00063132,-0.00628912,0.,-0.00308365,0.00866929
 ,0.,0.00177070,0.00573453,0.,0.00075955,0.00100427,0.,-0.00272153,-0.0
 0249932,0.,0.00231131,0.00070762,0.,0.00497134,0.00548460,0.,-0.004654
 36,-0.00469719,0.,-0.00187755,0.,0.,0.00262953,0.,0.,0.00113636,0.,0.,
 -0.00236927,0.,0.,0.00048093,0.00397204,0.,-0.00235984,-0.00435728,0.,
 0.00414315,0.00058346,0.,-0.00008237,-0.00029147,0.,-0.00007794,0.0000
 9324,0.,-0.00162302,-0.00103718,0.,0.00364439,-0.00162374,0.,-0.008802
 85,-0.00080232,0.,0.00143696,-0.01193478,0.,-0.00283287,0.,0.,0.005065
 74,0.00000357,0.,0.00801189,-0.00518686,0.,-0.01006725,0.00158644,0.,0
 .00002115,0.01054124,0.,0.00187621,-0.01503896,0.,-0.00079416,0.,0.,-0
 .00209005,0.,0.,0.00630791,0.00154999,0.,0.00066338,0.00475453,0.,0.00
 147690,-0.00364349,0.,-0.00370275,0.00031992,0.,0.00032566,0.00257534,
 0.,0.00317148,0.00311292,0.,-0.01148913,-0.16267597,0.,0.00017208,0.,0
 .,0.00114852,0.,0.,-0.00603433,0.,0.,0.04637036,-0.00024097,0.,0.00018
 047,-0.00197795,0.,-0.00107637,-0.00171738,0.,0.00139997,-0.02874409,0
 .,0.00025599,-0.00006686,0.,-0.00016003,-0.00037948,0.,0.00013561,-0.0
 0020161,0.,0.00882811,0.15666779,0.,0.03268039,-0.15601985,0.,-0.00018
 944,0.,0.,-0.00129132,0.,0.,0.00261066,0.,0.,-0.04165662,0.,0.,0.04052
 671,0.00031116,0.,-0.00005289,0.00097332,0.,0.00165483,0.00346351,0.,0
 .00016250,0.03673609,0.,-0.00076005,-0.04148407,0.,-0.00100442,0.01559
 982,0.,0.00722542,-0.00102374,0.,-0.05944260,-0.01948897,0.,0.00078646
 ,0.00220616,0.,-0.00692100,0.,0.,0.00714706,-0.00233036,0.,0.06070262,
 -0.00203590,0.,-0.06030739,0.00316664,0.,0.00066565,0.02075796,0.,0.00
 305565,-0.02636722,0.,-0.00062762,0.,0.,-0.00052645,0.,0.,-0.00020394,
 0.00343242,0.,-0.00124561,0.00826486,0.,0.00168503,-0.00692965,0.,0.00
 441390,0.00070296,0.,0.00030549,-0.00512282,0.,0.00218615,0.00712578,0
 .,-0.00870787,-0.05933367,0.,0.00049130,0.,0.,0.00040001,0.,0.,0.00147
 245,0.,0.,0.00163258,-0.00098248,0.,-0.00013684,-0.00672814,0.,-0.0046
 4237,0.00023997,0.,-0.00460038,0.00015267,0.,0.02127242,0.00001955,0.,
 -0.00073386,0.00164769,0.,-0.00087555,-0.00468314,0.,0.00394024,0.0566
 2777,0.,0.00731798,-0.05361188,0.,-0.00016811,0.,0.,-0.00009959,0.,0.,
 -0.00011444,0.,0.,-0.00399633,0.,0.,0.00437846,0.00090416,0.,0.0001224
 3,-0.00028728,0.,0.00256211,0.00296838,0.,-0.00025291,0.00606356,0.,-0
 .01189283,-0.00964881,0.,0.00946117,0.00000143,0.,0.00038172,0.0004676
 2,0.,-0.00125597,-0.00049158,0.,-0.00017502,0.00220109,0.,-0.00058900,
 0.,0.,-0.00059396,-0.00028496,0.,0.00218048,0.00809932,0.,0.00410344,0
 .00047770,0.,0.00016284,0.00537536,0.,-0.00088314,-0.01213428,0.,-0.00
 023296,0.,0.,-0.00075061,0.,0.,-0.00901711,0.00175160,0.,-0.00048102,0
 .00194611,0.,0.00493933,0.02082385,0.,0.15726778,-0.00041910,0.,-0.000
 17232,-0.00801902,0.,-0.00774513,0.00834211,0.,-0.06446711,0.05980831,
 0.,0.00041319,0.,0.,0.00155349,0.,0.,0.00702618,0.,0.,-0.00882700,-0.0
 0281931,0.,-0.00079242,-0.00843862,0.,-0.01417757,-0.01973917,0.,-0.15
 868042,0.09453697,0.,0.17699962,0.00043154,0.,-0.00028312,0.00093418,0
 .,0.00081392,-0.00206087,0.,0.03994555,-0.05971229,0.,-0.06353986,0.06
 040742,0.,0.00002705,0.,0.,0.00038010,0.,0.,0.00297455,0.,0.,-0.000165
 85,0.,0.,-0.00321584,0.00088505,0.,0.00034894,-0.00143178,0.,0.0029543
 1,-0.00036438,0.,-0.00304564,-0.02215241,0.,-0.00334921,0.02306352,0.,
 0.00309159,0.01660090,0.,0.00625869,0.00276817,0.,-0.05964027,-0.01776
 924,0.,0.00068470,0.05621296,0.,-0.00618876,0.,0.,-0.00281382,-0.00403
 886,0.,0.05962769,0.00059672,0.,-0.06796691,0.00117972,0.,-0.00222381,
 -0.03968146,0.,0.00367639,0.03622010,0.,-0.00038920,0.,0.,0.00878784,0
 .,0.,-0.01937244,0.00460516,0.,-0.00058516,0.01044108,0.,0.02031704,0.
 01783807,0.,0.06802681,-0.00010764,0.,-0.00028608,-0.00170197,0.,-0.00
 273081,-0.00517059,0.,-0.06552722,-0.00361630,0.,0.00019095,0.,0.,0.00
 069135,0.,0.,0.01180622,0.,0.,-0.01419285,-0.00488163,0.,0.00121111,-0
 .01438008,0.,-0.01570501,-0.02386531,0.,-0.06989415,0.01793810,0.,0.04
 692174,0.00009625,0.,-0.00094299,0.00293972,0.,0.00249656,0.00745222,0
 .,0.03264291,0.01059651,0.,0.02518892,-0.02108474,0.,0.00012833,0.,0.,
 -0.00047656,0.,0.,-0.00083240,0.,0.,0.00150434,0.,0.,-0.00032372,0.001
 54715,0.,-0.00061336,0.00265758,0.,0.00372720,0.00457466,0.,-0.0178645
 3,0.05060601,0.,0.03746632,-0.05938540,0.,-0.02271565,0.00306165,0.,-0
 .00018881,0.00329571,0.,-0.01339288,0.00478094,0.,0.00136274,0.1869477
 8,0.,-0.00122317,0.,0.,-0.03194196,-0.00089369,0.,0.01336950,0.0451828
 1,0.,-0.03248054,-0.01125639,0.,-0.00514127,-0.18159597,0.,-0.04445960
 ,0.17517177,0.,0.00266438,0.,0.,0.03317801,0.,0.,-0.04097771,-0.003404
 38,0.,-0.00282080,-0.04012180,0.,0.01848841,0.04014584,0.,-0.02232932,
 0.00302553,0.,0.00078568,-0.00163950,0.,-0.00025603,0.01023923,0.,0.00
 952642,-0.02980470,0.,-0.00140787,0.,0.,-0.00129890,0.,0.,0.00612561,0
 .,0.,-0.00569180,0.00011615,0.,0.00327454,0.00212791,0.,0.00083209,-0.
 00190699,0.,0.00519779,-0.01199555,0.,-0.01283351,0.00038827,0.,-0.000
 30287,-0.00849324,0.,0.00042652,0.00744138,0.,-0.00614609,0.01817946,0
 .,0.01165847,-0.01751589,0.,0.00015547,0.,0.,0.00128603,0.,0.,-0.00099
 026,0.,0.,0.00227298,0.,0.,-0.00272422,0.00088620,0.,-0.00043037,-0.00
 855166,0.,-0.00020946,0.01136201,0.,0.00146392,0.00193947,0.,0.0035290
 8,-0.00563603,0.,-0.00435319,0.22651824,0.,0.09400685,0.06343061,0.,-1
 .10697622,-0.22746884,0.,0.01804771,0.24666141,0.,-0.09675302,0.,0.,0.
 05766539,-0.12065581,0.,1.15007030,0.06704215,0.,-1.22666551,-0.009858
 17,0.,-0.07944947,-0.00237704,0.,0.04982136,-0.00057798,0.,0.00233999,
 0.,0.,0.03828271,0.,0.,-0.04277657,0.06894243,0.,-0.03397963,-0.084595
 32,0.,0.07633904,0.01470951,0.,-0.04252894,-0.00081656,0.,-0.00343738,
 -0.00523692,0.,-0.00372210,0.01010958,0.,0.00490077,0.02490745,0.,0.00
 062147,0.,0.,0.00247794,0.,0.,-0.00013490,0.,0.,-0.00623146,-0.0173869
 6,0.,-0.01040827,0.00815538,0.,0.00065449,0.00848406,0.,-0.00154721,0.
 01015403,0.,0.00727129,0.01162533,0.,0.00140852,-0.01157862,0.,0.00751
 441,0.00270364,0.,-0.00395739,-0.02896353,0.,-0.00940652,0.02621319,0.
 ,-0.00021528,0.,0.,-0.00167301,0.,0.,0.00228880,0.,0.,0.00326696,0.,0.
 ,-0.00366746,0.00566972,0.,0.00129383,-0.00864992,0.,-0.00039833,0.006
 43454,0.,0.00171676,-0.00789531,0.,0.00402970,0.00444097,0.,-0.0066419
 6,0.00120248,0.,0.00057553,0.00124339,0.,-0.01121998,0.00044724,0.,0.0
 0035058,-0.00026473,0.,-0.00084368,0.,0.,-0.00158839,-0.00325534,0.,0.
 01147438,0.00479013,0.,-0.01779271,-0.00342674,0.,-0.00168603,0.000062
 62,0.,-0.00848523,-0.01812101,0.,0.00032501,0.,0.,0.00188721,0.,0.,-0.
 01412482,0.00110724,0.,-0.00019946,-0.00125747,0.,0.00585528,0.0133054
 4,0.,0.05511205,0.00339661,0.,0.00110599,-0.00057060,0.,0.01258621,0.0
 3062839,0.,-0.04261145,1.33806948,0.,-0.00018651,0.,0.,0.00102183,0.,0
 .,0.01645653,0.,0.,-0.25946438,0.00200129,0.,0.00008342,-0.00613085,0.
 ,0.00392838,0.00420528,0.,-0.07215525,0.48768958,0.,-0.00989806,-0.001
 61959,0.,-0.00101393,0.00032549,0.,-0.00563577,-0.00914324,0.,0.029456
 24,-1.37152387,0.,-0.48776530,1.38196119,0.,0.00012964,0.,0.,-0.000476
 93,0.,0.,-0.00454389,0.,0.,0.24217254,0.,0.,-0.23728136,-0.00109657,0.
 ,-0.00013836,0.00224760,0.,-0.00346534,-0.00733946,0.,0.01138739,-0.45
 877033,0.,0.07804151,0.46495877,0.,-0.08582521,-1.26047738,0.,-1.40104
 569,-0.03704323,0.,6.49085118,1.29121502,0.,0.03149042,-1.34844608,0.,
 1.40109789,0.,0.,-1.39605735,0.07077260,0.,-6.51002698,-0.06876861,0.,
 6.51906555,-0.02453032,0.,0.00319287,0.05067923,0.,-0.00570946,-0.0319
 0596,0.,0.00297561,0.,0.,-0.00812656,0.,0.,0.00279009,-0.03805689,0.,0
 .01352299,0.04770441,0.,-0.00913557,-0.00692511,0.,-0.00428139,-0.0018
 0000,0.,0.00508340,0.00021722,0.,0.00363391,0.00869895,0.,-0.00318570,
 -0.00963302,0.,-0.00383072,0.,0.,0.00402703,0.,0.,0.00293976,0.,0.,-0.
 00358791,0.00859213,0.,0.00726525,-0.01674683,0.,-0.00155563,0.0105836
 4,0.,0.00029838,-0.00622986,0.,-0.00747455,-0.00440732,0.,-0.00272346,
 0.00633461,0.,0.00007157,-0.00294187,0.,0.00046329,0.00251686,0.,0.003
 80092,-0.00150231,0.,0.00080292,0.,0.,-0.00094098,0.,0.,-0.00057886,0.
 ,0.,0.00045185,0.,0.,0.00026505,-0.00426460,0.,-0.00161243,0.00632061,
 0.,0.00165263,-0.00114194,0.,-0.00040440,0.00069826,0.,0.00146654,-0.0
 0161232,0.,-0.00110237\\@


 FORGIVE MY NONSENSE AS I ALSO FORGIVE THOSE WHO THINK THEY TALK SENSE

                                                       -- ROBERT FROST
 Job cpu time:       1 days 14 hours 21 minutes  5.7 seconds.
 Elapsed time:       0 days  1 hours 23 minutes 45.0 seconds.
 File lengths (MBytes):  RWF=   7286 Int=      0 D2E=      0 Chk=     48 Scr=      1
 Normal termination of Gaussian 16 at Mon Feb 28 02:36:08 2022.
