title                                                                   
Freq      RMP2-FC                                                     Aug-CC-pVTZ         
Number of atoms                            I                5
Info1-9                                    I   N=           9
          33          24           0           0           0         100
           6           2           1
Full Title                                 C   N=           1
title       
Route                                      C   N=           4
#p freq=anharm mp2/aug-cc-pvtz density=current  
Charge                                     I                0
Multiplicity                               I                1
Number of electrons                        I               32
Number of alpha electrons                  I               16
Number of beta electrons                   I               16
Number of basis functions                  I              207
Number of independent functions            I              207
Number of point charges in /Mol/           I                0
Number of translation vectors              I                0
Atomic numbers                             I   N=           5
           1           8           8           7           8
Nuclear charges                            R   N=           5
  1.00000000E+00  8.00000000E+00  8.00000000E+00  7.00000000E+00  8.00000000E+00
Current cartesian coordinates              R   N=          15
  2.92739703E+00  3.18837559E+00  1.37231662E-31  2.74778120E+00  1.36610788E+00
  9.01057338E-32 -4.88798101E-18  1.27180267E+00  4.99158128E-33 -4.94413379E-01
 -1.44020088E+00 -1.71689698E-32 -2.68109413E+00 -1.77628173E+00 -3.10381400E-32
Number of symbols in /Mol/                 I                0
Force Field                                I                0
Atom Types                                 C   N=           5
                                                            
Int Atom Types                             I   N=           5
           0           0           0           0           0
MM charges                                 R   N=           5
  0.00000000E+00  0.00000000E+00  0.00000000E+00  0.00000000E+00  0.00000000E+00
Integer atomic weights                     I   N=           5
           1          16          16          14          16
Real atomic weights                        R   N=           5
  1.00782504E+00  1.59949146E+01  1.59949146E+01  1.40030740E+01  1.59949146E+01
Atom fragment info                         I   N=           5
           0           0           0           0           0
Atom residue num                           I   N=           5
           0           0           0           0           0
Nuclear spins                              I   N=           5
           1           0           0           2           0
Nuclear ZEff                               R   N=           5
 -1.00000000E+00 -5.60000000E+00 -5.60000000E+00 -4.55000000E+00 -5.60000000E+00
Nuclear ZNuc                               R   N=           5
  1.00000000E+00  8.00000000E+00  8.00000000E+00  7.00000000E+00  8.00000000E+00
Nuclear QMom                               R   N=           5
  0.00000000E+00  0.00000000E+00  0.00000000E+00  2.04400000E+00  0.00000000E+00
Nuclear GFac                               R   N=           5
  2.79284600E+00  0.00000000E+00  0.00000000E+00  4.03761000E-01  0.00000000E+00
MicOpt                                     I   N=           5
          -1          -1          -1          -1          -1
Number of residues                         I                0
Number of secondary structures             I                0
SymInf integers                            I   N=          26
           1           2           1           1           1           1
           1          -1           0           0           0           0
           0           0           0           0           0           0
           0           0           0           0           0           0
           0           0
RotTr to input orientation                 R   N=          12
 -9.95177366E-01 -9.84399875E-17 -9.80918445E-02  9.80918445E-02 -7.28503033E-17
 -9.95177366E-01  9.08192269E-17 -1.00000000E+00  8.21551329E-17  2.60052562E+00
  0.00000000E+00  3.46015300E+00
Number of contracted shells                I               65
Number of primitive shells                 I              119
Pure/Cartesian d shells                    I                0
Pure/Cartesian f shells                    I                0
Highest angular momentum                   I                3
Largest degree of contraction              I                7
Shell types                                I   N=          65
           0           0           0           0           1           1
           1          -2          -2           0           0           0
           0           0           1           1           1           1
          -2          -2          -2          -3          -3           0
           0           0           0           0           1           1
           1           1          -2          -2          -2          -3
          -3           0           0           0           0           0
           1           1           1           1          -2          -2
          -2          -3          -3           0           0           0
           0           0           1           1           1           1
          -2          -2          -2          -3          -3
Number of primitives per shell             I   N=          65
           3           1           1           1           1           1
           1           1           1           7           6           1
           1           1           3           1           1           1
           1           1           1           1           1           7
           6           1           1           1           3           1
           1           1           1           1           1           1
           1           7           6           1           1           1
           3           1           1           1           1           1
           1           1           1           7           6           1
           1           1           3           1           1           1
           1           1           1           1           1
Shell to atom map                          I   N=          65
           1           1           1           1           1           1
           1           1           1           2           2           2
           2           2           2           2           2           2
           2           2           2           2           2           3
           3           3           3           3           3           3
           3           3           3           3           3           3
           3           4           4           4           4           4
           4           4           4           4           4           4
           4           4           4           5           5           5
           5           5           5           5           5           5
           5           5           5           5           5
Primitive exponents                        R   N=         119
  3.38700000E+01  5.09500000E+00  1.15900000E+00  3.25800000E-01  1.02700000E-01
  2.52600000E-02  1.40700000E+00  3.88000000E-01  1.02000000E-01  1.05700000E+00
  2.47000000E-01  1.53300000E+04  2.29900000E+03  5.22400000E+02  1.47300000E+02
  4.75500000E+01  1.67600000E+01  6.20700000E+00  5.22400000E+02  1.47300000E+02
  4.75500000E+01  1.67600000E+01  6.20700000E+00  6.88200000E-01  1.75200000E+00
  2.38400000E-01  7.37600000E-02  3.44600000E+01  7.74900000E+00  2.28000000E+00
  7.15600000E-01  2.14000000E-01  5.97400000E-02  2.31400000E+00  6.45000000E-01
  2.14000000E-01  1.42800000E+00  5.00000000E-01  1.53300000E+04  2.29900000E+03
  5.22400000E+02  1.47300000E+02  4.75500000E+01  1.67600000E+01  6.20700000E+00
  5.22400000E+02  1.47300000E+02  4.75500000E+01  1.67600000E+01  6.20700000E+00
  6.88200000E-01  1.75200000E+00  2.38400000E-01  7.37600000E-02  3.44600000E+01
  7.74900000E+00  2.28000000E+00  7.15600000E-01  2.14000000E-01  5.97400000E-02
  2.31400000E+00  6.45000000E-01  2.14000000E-01  1.42800000E+00  5.00000000E-01
  1.14200000E+04  1.71200000E+03  3.89300000E+02  1.10000000E+02  3.55700000E+01
  1.25400000E+01  4.64400000E+00  3.89300000E+02  1.10000000E+02  3.55700000E+01
  1.25400000E+01  4.64400000E+00  5.11800000E-01  1.29300000E+00  1.78700000E-01
  5.76000000E-02  2.66300000E+01  5.94800000E+00  1.74200000E+00  5.55000000E-01
  1.72500000E-01  4.91000000E-02  1.65400000E+00  4.69000000E-01  1.51000000E-01
  1.09300000E+00  3.64000000E-01  1.53300000E+04  2.29900000E+03  5.22400000E+02
  1.47300000E+02  4.75500000E+01  1.67600000E+01  6.20700000E+00  5.22400000E+02
  1.47300000E+02  4.75500000E+01  1.67600000E+01  6.20700000E+00  6.88200000E-01
  1.75200000E+00  2.38400000E-01  7.37600000E-02  3.44600000E+01  7.74900000E+00
  2.28000000E+00  7.15600000E-01  2.14000000E-01  5.97400000E-02  2.31400000E+00
  6.45000000E-01  2.14000000E-01  1.42800000E+00  5.00000000E-01
Contraction coefficients                   R   N=         119
  2.54948632E-02  1.90362766E-01  8.52162022E-01  1.00000000E+00  1.00000000E+00
  1.00000000E+00  1.00000000E+00  1.00000000E+00  1.00000000E+00  1.00000000E+00
  1.00000000E+00  5.19808943E-04  4.02025621E-03  2.07128267E-02  8.10105536E-02
  2.35962985E-01  4.42653446E-01  3.57064423E-01 -4.42115008E-05 -1.22591041E-03
 -1.05517725E-02 -6.74452633E-02 -1.71198607E-01  1.07329856E+00  1.00000000E+00
  1.00000000E+00  1.00000000E+00  4.11634896E-02  2.57762836E-01  8.02419274E-01
  1.00000000E+00  1.00000000E+00  1.00000000E+00  1.00000000E+00  1.00000000E+00
  1.00000000E+00  1.00000000E+00  1.00000000E+00  5.19808943E-04  4.02025621E-03
  2.07128267E-02  8.10105536E-02  2.35962985E-01  4.42653446E-01  3.57064423E-01
 -4.42115008E-05 -1.22591041E-03 -1.05517725E-02 -6.74452633E-02 -1.71198607E-01
  1.07329856E+00  1.00000000E+00  1.00000000E+00  1.00000000E+00  4.11634896E-02
  2.57762836E-01  8.02419274E-01  1.00000000E+00  1.00000000E+00  1.00000000E+00
  1.00000000E+00  1.00000000E+00  1.00000000E+00  1.00000000E+00  1.00000000E+00
  5.34563860E-04  4.13435660E-03  2.12335358E-02  8.25006224E-02  2.38138871E-01
  4.42551547E-01  3.53757422E-01 -4.89867350E-05 -1.19527323E-03 -1.03490714E-02
 -6.48680190E-02 -1.71552477E-01  1.07289568E+00  1.00000000E+00  1.00000000E+00
  1.00000000E+00  3.98072123E-02  2.49002660E-01  8.10479727E-01  1.00000000E+00
  1.00000000E+00  1.00000000E+00  1.00000000E+00  1.00000000E+00  1.00000000E+00
  1.00000000E+00  1.00000000E+00  5.19808943E-04  4.02025621E-03  2.07128267E-02
  8.10105536E-02  2.35962985E-01  4.42653446E-01  3.57064423E-01 -4.42115008E-05
 -1.22591041E-03 -1.05517725E-02 -6.74452633E-02 -1.71198607E-01  1.07329856E+00
  1.00000000E+00  1.00000000E+00  1.00000000E+00  4.11634896E-02  2.57762836E-01
  8.02419274E-01  1.00000000E+00  1.00000000E+00  1.00000000E+00  1.00000000E+00
  1.00000000E+00  1.00000000E+00  1.00000000E+00  1.00000000E+00
Coordinates of each shell                  R   N=         195
  2.92739703E+00  3.18837559E+00  7.71242282E-32  2.92739703E+00  3.18837559E+00
  7.71242282E-32  2.92739703E+00  3.18837559E+00  7.71242282E-32  2.92739703E+00
  3.18837559E+00  7.71242282E-32  2.92739703E+00  3.18837559E+00  7.71242282E-32
  2.92739703E+00  3.18837559E+00  7.71242282E-32  2.92739703E+00  3.18837559E+00
  7.71242282E-32  2.92739703E+00  3.18837559E+00  7.71242282E-32  2.92739703E+00
  3.18837559E+00  7.71242282E-32  2.74778120E+00  1.36610788E+00  6.24638854E-32
  2.74778120E+00  1.36610788E+00  6.24638854E-32  2.74778120E+00  1.36610788E+00
  6.24638854E-32  2.74778120E+00  1.36610788E+00  6.24638854E-32  2.74778120E+00
  1.36610788E+00  6.24638854E-32  2.74778120E+00  1.36610788E+00  6.24638854E-32
  2.74778120E+00  1.36610788E+00  6.24638854E-32  2.74778120E+00  1.36610788E+00
  6.24638854E-32  2.74778120E+00  1.36610788E+00  6.24638854E-32  2.74778120E+00
  1.36610788E+00  6.24638854E-32  2.74778120E+00  1.36610788E+00  6.24638854E-32
  2.74778120E+00  1.36610788E+00  6.24638854E-32  2.74778120E+00  1.36610788E+00
  6.24638854E-32  2.74778120E+00  1.36610788E+00  6.24638854E-32  1.02282061E-18
  1.27180267E+00  7.76248862E-33  1.02282061E-18  1.27180267E+00  7.76248862E-33
  1.02282061E-18  1.27180267E+00  7.76248862E-33  1.02282061E-18  1.27180267E+00
  7.76248862E-33  1.02282061E-18  1.27180267E+00  7.76248862E-33  1.02282061E-18
  1.27180267E+00  7.76248862E-33  1.02282061E-18  1.27180267E+00  7.76248862E-33
  1.02282061E-18  1.27180267E+00  7.76248862E-33  1.02282061E-18  1.27180267E+00
  7.76248862E-33  1.02282061E-18  1.27180267E+00  7.76248862E-33  1.02282061E-18
  1.27180267E+00  7.76248862E-33  1.02282061E-18  1.27180267E+00  7.76248862E-33
  1.02282061E-18  1.27180267E+00  7.76248862E-33  1.02282061E-18  1.27180267E+00
  7.76248862E-33 -4.94413379E-01 -1.44020088E+00 -1.85292687E-32 -4.94413379E-01
 -1.44020088E+00 -1.85292687E-32 -4.94413379E-01 -1.44020088E+00 -1.85292687E-32
 -4.94413379E-01 -1.44020088E+00 -1.85292687E-32 -4.94413379E-01 -1.44020088E+00
 -1.85292687E-32 -4.94413379E-01 -1.44020088E+00 -1.85292687E-32 -4.94413379E-01
 -1.44020088E+00 -1.85292687E-32 -4.94413379E-01 -1.44020088E+00 -1.85292687E-32
 -4.94413379E-01 -1.44020088E+00 -1.85292687E-32 -4.94413379E-01 -1.44020088E+00
 -1.85292687E-32 -4.94413379E-01 -1.44020088E+00 -1.85292687E-32 -4.94413379E-01
 -1.44020088E+00 -1.85292687E-32 -4.94413379E-01 -1.44020088E+00 -1.85292687E-32
 -4.94413379E-01 -1.44020088E+00 -1.85292687E-32 -2.68109413E+00 -1.77628173E+00
 -6.36537924E-32 -2.68109413E+00 -1.77628173E+00 -6.36537924E-32 -2.68109413E+00
 -1.77628173E+00 -6.36537924E-32 -2.68109413E+00 -1.77628173E+00 -6.36537924E-32
 -2.68109413E+00 -1.77628173E+00 -6.36537924E-32 -2.68109413E+00 -1.77628173E+00
 -6.36537924E-32 -2.68109413E+00 -1.77628173E+00 -6.36537924E-32 -2.68109413E+00
 -1.77628173E+00 -6.36537924E-32 -2.68109413E+00 -1.77628173E+00 -6.36537924E-32
 -2.68109413E+00 -1.77628173E+00 -6.36537924E-32 -2.68109413E+00 -1.77628173E+00
 -6.36537924E-32 -2.68109413E+00 -1.77628173E+00 -6.36537924E-32 -2.68109413E+00
 -1.77628173E+00 -6.36537924E-32 -2.68109413E+00 -1.77628173E+00 -6.36537924E-32
Num ILSW                                   I              100
ILSW                                       I   N=         100
           0           0           0           1           2           0
           0           0           0           0           0          -1
           5           0           0           0           2           0
           0           0           0           0           1           0
           1           0           0           0           0           0
           0           0      100000           0          -1           0
           0           0           0           0           0           0
           0           0           0           1           1           0
           0 -2000000000           1           0           0           0
           0           0           4          52           0           0
           0           0           0           0           0           0
           0           0           0           5           4           1
           0           0           0           0           0           0
           0           0           0           0           0           0
           0           0           0           0           0           0
           0           0           0           0           0           0
           0           0           0           0
Num RLSW                                   I               52
RLSW                                       R   N=          52
  1.00000000E+00  1.00000000E+00  1.00000000E+00  1.00000000E+00  1.00000000E+00
  0.00000000E+00  0.00000000E+00  1.00000000E+00  0.00000000E+00  0.00000000E+00
  0.00000000E+00  0.00000000E+00  1.00000000E+00  0.00000000E+00  0.00000000E+00
  0.00000000E+00  0.00000000E+00  1.00000000E+00  0.00000000E+00  0.00000000E+00
  0.00000000E+00  0.00000000E+00  1.00000000E+00  0.00000000E+00  0.00000000E+00
  0.00000000E+00  0.00000000E+00  1.00000000E+00  0.00000000E+00  0.00000000E+00
  0.00000000E+00  0.00000000E+00  1.00000000E+00  0.00000000E+00  0.00000000E+00
  0.00000000E+00  0.00000000E+00  0.00000000E+00  1.00000000E+00  1.00000000E+00
  0.00000000E+00  1.00000000E+00  0.00000000E+00  0.00000000E+00  0.00000000E+00
  0.00000000E+00  0.00000000E+00  0.00000000E+00  0.00000000E+00  0.00000000E+00
  0.00000000E+00  0.00000000E+00
MxBond                                     I                2
NBond                                      I   N=           5
           1           2           2           2           1
IBond                                      I   N=          10
           2           0           1           3           2           4
           3           5           4           0
RBond                                      R   N=          10
  1.00000000E+00  0.00000000E+00  1.00000000E+00  1.00000000E+00  1.00000000E+00
  1.00000000E+00  1.00000000E+00  2.00000000E+00  2.00000000E+00  0.00000000E+00
Virial Ratio                               R      2.002353825226424E+00
SCF Energy                                 R     -2.795016878692180E+02
MP2 Energy                                 R     -2.804467347577438E+02
Total Energy                               R     -2.804467347577438E+02
Post-SCF wavefunction norm                 R      1.584234541565101E+00
RMS Force                                  R      1.685393020488847E-04
RMS Density                                R      3.790428201461394E-09
NImag                                      I                1
Job Status                                 I                1
Nuclear derivative order                   I                3
External E-field                           R   N=          35
  0.00000000E+00  0.00000000E+00  0.00000000E+00  0.00000000E+00  0.00000000E+00
  0.00000000E+00  0.00000000E+00  0.00000000E+00  0.00000000E+00  0.00000000E+00
  0.00000000E+00  0.00000000E+00  0.00000000E+00  0.00000000E+00  0.00000000E+00
  0.00000000E+00  0.00000000E+00  0.00000000E+00  0.00000000E+00  0.00000000E+00
  0.00000000E+00  0.00000000E+00  0.00000000E+00  0.00000000E+00  0.00000000E+00
  0.00000000E+00  0.00000000E+00  0.00000000E+00  0.00000000E+00  0.00000000E+00
  0.00000000E+00  0.00000000E+00  0.00000000E+00  0.00000000E+00  0.00000000E+00
IOpCl                                      I                0
IROHF                                      I                0
Alpha Orbital Energies                     R   N=         207
 -2.06906022E+01 -2.06840960E+01 -2.06607572E+01 -1.58126138E+01 -1.62380761E+00
 -1.49456792E+00 -1.25238610E+00 -9.47837600E-01 -7.72012083E-01 -7.58330979E-01
 -7.11569401E-01 -6.77743149E-01 -6.20164581E-01 -5.88986566E-01 -4.84855880E-01
 -4.72220594E-01  2.94330413E-02  7.18338008E-02  8.59909584E-02  1.01738525E-01
  1.33969695E-01  1.34034066E-01  1.43634371E-01  1.54166346E-01  1.78399393E-01
  1.94195993E-01  1.99836523E-01  2.06361831E-01  2.20867551E-01  2.35760298E-01
  2.37477994E-01  2.65761206E-01  2.93223395E-01  3.03444978E-01  3.10077812E-01
  3.43521030E-01  3.50308346E-01  3.87066664E-01  4.20612615E-01  4.30426676E-01
  5.27418279E-01  5.29404362E-01  5.58567637E-01  5.81842151E-01  6.26087185E-01
  6.38290264E-01  6.74591942E-01  6.83506588E-01  7.06429438E-01  7.10712262E-01
  7.23337781E-01  7.29407600E-01  7.44472183E-01  7.91830261E-01  7.91952216E-01
  8.10170871E-01  8.12835165E-01  8.30475913E-01  8.68376324E-01  9.08342599E-01
  9.21620910E-01  9.26167820E-01  9.55729108E-01  9.78787183E-01  9.83268661E-01
  1.01461131E+00  1.05248154E+00  1.05480260E+00  1.08152142E+00  1.11618646E+00
  1.14006330E+00  1.18981366E+00  1.22015522E+00  1.23069271E+00  1.33913276E+00
  1.35105129E+00  1.38640618E+00  1.45066454E+00  1.48489255E+00  1.50724797E+00
  1.53835433E+00  1.56691847E+00  1.58038778E+00  1.61216258E+00  1.66501014E+00
  1.67036353E+00  1.70320098E+00  1.79280097E+00  1.83091953E+00  1.83493658E+00
  1.87866118E+00  1.90885683E+00  1.95050914E+00  1.99185538E+00  2.00404635E+00
  2.07761805E+00  2.11971432E+00  2.13213520E+00  2.15024065E+00  2.22393326E+00
  2.26399302E+00  2.26567755E+00  2.28956060E+00  2.31340211E+00  2.34348953E+00
  2.38438791E+00  2.42449255E+00  2.42801280E+00  2.45421312E+00  2.46266929E+00
  2.47623779E+00  2.50067747E+00  2.59301174E+00  2.59621175E+00  2.62144142E+00
  2.62365215E+00  2.63491415E+00  2.66955237E+00  2.75749560E+00  2.82870169E+00
  2.85544180E+00  2.88388192E+00  2.89448540E+00  2.92315815E+00  2.95811568E+00
  3.02351875E+00  3.06755127E+00  3.12330374E+00  3.20513283E+00  3.22595467E+00
  3.31528047E+00  3.34050422E+00  3.51739850E+00  3.63912494E+00  3.83342030E+00
  3.83831000E+00  4.13960852E+00  4.15953944E+00  4.18167251E+00  4.25671769E+00
  4.34271518E+00  4.39102680E+00  4.46029750E+00  4.51532034E+00  4.66095713E+00
  4.70678594E+00  4.80200605E+00  4.81196680E+00  4.82562396E+00  4.89561464E+00
  5.02329941E+00  5.07744937E+00  5.09263672E+00  5.13644474E+00  5.17374794E+00
  5.23049783E+00  5.26508203E+00  5.30658598E+00  5.30859700E+00  5.35320001E+00
  5.60147578E+00  5.67370355E+00  5.76680414E+00  5.82415150E+00  5.95639228E+00
  6.17110720E+00  6.30836109E+00  6.34011949E+00  6.39201915E+00  6.49361587E+00
  6.50537288E+00  6.61219929E+00  6.66888353E+00  6.69933387E+00  6.75836366E+00
  6.76370392E+00  6.83246546E+00  6.89836999E+00  7.00694093E+00  7.05486656E+00
  7.05606570E+00  7.08865889E+00  7.12180771E+00  7.14756385E+00  7.17977942E+00
  7.22250331E+00  7.22718829E+00  7.29723042E+00  7.32514642E+00  7.34531894E+00
  7.39994020E+00  7.42988172E+00  7.48463015E+00  7.60721653E+00  7.61625817E+00
  7.62516150E+00  7.66299670E+00  7.77927556E+00  7.88694247E+00  8.08817498E+00
  8.31113530E+00  8.39652902E+00  8.54097755E+00  1.33886451E+01  1.43789988E+01
  1.50206462E+01  1.61529295E+01
Alpha MO coefficients                      R   N=       42849
  9.19655214E-05 -6.39833166E-04 -7.27300851E-04 -4.52145298E-06 -2.13622950E-05
 -2.69665417E-05  0.00000000E+00 -4.35395271E-05  6.04200349E-05  0.00000000E+00
  8.71980478E-05  3.62398457E-05  0.00000000E+00  3.18591584E-05  0.00000000E+00
  0.00000000E+00 -4.97258625E-05  2.10118371E-05 -5.13118233E-06  0.00000000E+00
  0.00000000E+00 -1.38832101E-04  1.17797551E-04  4.58326857E-03 -2.81946510E-04
  1.45394440E-05  1.55685782E-03  1.82446618E-03  1.06254635E-04  7.49091049E-06
  0.00000000E+00 -6.17175520E-04 -3.58544294E-05  0.00000000E+00 -1.10259475E-03
  7.93046710E-04  0.00000000E+00 -4.03397683E-04  6.32876270E-05  0.00000000E+00
  2.88494774E-05  0.00000000E+00  0.00000000E+00 -5.41494443E-05  5.79992980E-06
 -3.78388272E-04  0.00000000E+00  0.00000000E+00  7.40383206E-04 -3.21069035E-05
 -4.46894159E-04  0.00000000E+00  0.00000000E+00  2.42772086E-04 -1.52209385E-05
  0.00000000E+00  8.00749406E-05  1.27196768E-05  0.00000000E+00  0.00000000E+00
 -1.09597196E-04 -3.35897173E-06  0.00000000E+00  2.54924521E-04 -2.76699741E-05
  0.00000000E+00  0.00000000E+00 -3.53411600E-04  5.00561766E-05  9.76911206E-01
 -9.21607888E-03  4.33184394E-02  2.03864878E-03 -9.18789620E-04  1.49421315E-03
 -1.35505350E-03  0.00000000E+00 -1.43612346E-03  1.38377909E-03  0.00000000E+00
  8.14100842E-05 -1.16162188E-03  0.00000000E+00 -1.35165310E-04 -1.22609493E-05
  0.00000000E+00  4.62643295E-05  0.00000000E+00  0.00000000E+00 -3.52349587E-05
  2.13799932E-05  7.47268503E-04  0.00000000E+00  0.00000000E+00 -2.32666401E-04
 -3.89655644E-04 -3.59642490E-04  0.00000000E+00  0.00000000E+00 -3.12828770E-04
 -3.74340762E-04  0.00000000E+00  4.74505972E-05 -4.89569454E-05  0.00000000E+00
  0.00000000E+00 -3.89915170E-05 -1.57537881E-05  0.00000000E+00  2.34388170E-05
  2.19814174E-05  0.00000000E+00  0.00000000E+00 -3.05248860E-04 -1.39644707E-04
  3.90522830E-05  4.57811831E-05 -2.64403267E-04 -7.02416080E-04 -1.43250704E-04
 -2.70088002E-05 -9.74658734E-05  0.00000000E+00  2.69793930E-04  7.09392289E-04
  0.00000000E+00 -8.36551711E-04 -4.78668527E-04  0.00000000E+00 -1.25403609E-04
 -2.74403150E-05  0.00000000E+00 -1.81277844E-05  0.00000000E+00  0.00000000E+00
 -2.96205716E-05  1.50845868E-05 -3.28657469E-04  0.00000000E+00  0.00000000E+00
 -8.28302092E-04  1.27649457E-04 -3.63193228E-05  0.00000000E+00  0.00000000E+00
  9.67754032E-05 -1.16842542E-04  0.00000000E+00 -2.06603384E-05 -1.20067861E-04
  0.00000000E+00  0.00000000E+00 -6.26196469E-05 -1.37803444E-04  0.00000000E+00
  2.96686137E-06 -1.52640480E-04  0.00000000E+00  0.00000000E+00  4.41132744E-05
 -4.18057899E-04 -2.57443635E-03  1.21870948E-04 -1.23330614E-04 -2.45221336E-04
  1.35558948E-04 -7.95098065E-06 -2.77548585E-05  0.00000000E+00  6.91647067E-05
  1.63660709E-04  0.00000000E+00  2.33181922E-04  2.00209869E-04  0.00000000E+00
  1.26831515E-04  2.39181730E-05  0.00000000E+00 -3.34382435E-06  0.00000000E+00
  0.00000000E+00 -1.78925145E-05  1.22726921E-06  6.97461380E-07  0.00000000E+00
  0.00000000E+00  8.02980003E-05  8.76720788E-05 -1.00172719E-04  0.00000000E+00
  0.00000000E+00  1.66498446E-04  1.61711602E-04  0.00000000E+00  1.58662694E-05
 -3.52739238E-06  0.00000000E+00  0.00000000E+00 -4.31805689E-06 -1.19561619E-05
  0.00000000E+00 -3.35912846E-05  4.53829130E-05  0.00000000E+00  0.00000000E+00
  8.36116006E-05  8.99986311E-05  3.90821031E-05 -9.90234573E-04 -4.87616736E-04
 -1.08626416E-05 -2.21396330E-05  1.60555318E-05  0.00000000E+00  3.90467029E-07
  2.75069833E-04  0.00000000E+00 -4.17713662E-05  1.33839488E-04  0.00000000E+00
  2.60118117E-05  0.00000000E+00  0.00000000E+00  1.25046951E-05  1.09737491E-05
 -2.75098275E-05  0.00000000E+00  0.00000000E+00  1.13349299E-05  3.47981048E-05
  1.12322434E-04  8.41176679E-05 -2.80605610E-05  7.53075059E-04  6.53122834E-04
  1.02404436E-05  2.48723082E-06  0.00000000E+00 -7.28922700E-05  1.61619169E-05
  0.00000000E+00  3.33683877E-04  9.02257020E-04  0.00000000E+00  3.48940578E-06
  8.15524088E-05  0.00000000E+00 -2.27411319E-06  0.00000000E+00  0.00000000E+00
 -1.21231642E-07 -6.06381536E-06 -3.59215380E-05  0.00000000E+00  0.00000000E+00
 -2.00326527E-05  8.35581853E-05 -2.31904858E-05  0.00000000E+00  0.00000000E+00
 -2.67959192E-04 -1.62487064E-04  0.00000000E+00  9.18865118E-06  6.01170622E-06
  0.00000000E+00  0.00000000E+00  2.67477374E-06 -1.87410472E-05  0.00000000E+00
 -4.03464923E-05 -3.81979535E-05  0.00000000E+00  0.00000000E+00 -7.67126525E-05
  1.98267700E-05  2.61336050E-03  3.93149200E-05  9.11502420E-05 -6.91365636E-05
 -4.68750270E-04  7.28909756E-06  1.57868914E-05  0.00000000E+00 -6.22340639E-05
 -5.54661535E-05  0.00000000E+00  2.35114315E-04 -1.88364655E-04  0.00000000E+00
 -1.88027667E-04 -6.43843899E-05  0.00000000E+00 -8.71606704E-06  0.00000000E+00
  0.00000000E+00  2.23959526E-05  1.97854793E-05  4.42192761E-06  0.00000000E+00
  0.00000000E+00 -1.17460445E-04 -4.65376957E-05 -4.24457488E-06  0.00000000E+00
  0.00000000E+00 -2.22161750E-04 -2.06548112E-04  0.00000000E+00  3.26165203E-06
 -5.45236993E-07  0.00000000E+00  0.00000000E+00  1.72152397E-06 -1.35860381E-05
  0.00000000E+00 -4.64598856E-05  3.52271780E-06  0.00000000E+00  0.00000000E+00
 -7.64002483E-05  1.87948512E-04  2.58690472E-04  1.46517286E-03 -7.80306138E-05
 -1.53924332E-03  3.97584620E-04 -1.44481651E-04  1.43877593E-07  0.00000000E+00
 -2.08954862E-03 -4.03933206E-04  0.00000000E+00  1.03782832E-03  7.62620355E-04
  0.00000000E+00 -1.70665319E-04  5.57023055E-05  0.00000000E+00 -1.23347635E-04
  0.00000000E+00  0.00000000E+00  2.43103600E-04  9.40647409E-05 -4.42263164E-04
  0.00000000E+00  0.00000000E+00  8.98993588E-04 -6.62191281E-05  1.16564726E-05
  0.00000000E+00  0.00000000E+00 -3.38323072E-04 -1.23288123E-04  0.00000000E+00
 -1.30032443E-06  1.52871468E-05  0.00000000E+00  0.00000000E+00  1.88665348E-05
  1.33663819E-05  0.00000000E+00  1.64659868E-04 -7.17809558E-05  0.00000000E+00
  0.00000000E+00 -2.40672809E-04  4.20323983E-05  9.76649287E-01 -9.84826444E-03
  4.35680354E-02  4.50086779E-03 -4.46055677E-04  2.14814178E-03  4.80899818E-04
  0.00000000E+00 -2.38404363E-03 -6.03729573E-04  0.00000000E+00  1.13925302E-03
 -3.68937698E-06  0.00000000E+00  4.63162505E-06 -4.24302607E-05  0.00000000E+00
 -2.32343629E-04  0.00000000E+00  0.00000000E+00  1.02733949E-04  3.18447782E-05
  3.90584846E-04  0.00000000E+00  0.00000000E+00 -8.34080032E-04 -4.19197028E-04
 -1.53657087E-04  0.00000000E+00  0.00000000E+00  2.56038752E-04  1.68623241E-05
  0.00000000E+00  5.22720530E-05  1.76939012E-05  0.00000000E+00  0.00000000E+00
 -2.21154487E-05 -1.32822138E-05  0.00000000E+00  1.38311716E-04  9.27954157E-06
  0.00000000E+00  0.00000000E+00 -1.89774427E-04 -1.40685142E-04  4.74825278E-04
  2.06137980E-03  1.15459346E-04  1.49489382E-05 -4.11676579E-05 -2.46820741E-04
  0.00000000E+00  1.11311714E-04 -1.27520034E-03  0.00000000E+00  3.10785239E-04
 -3.38423873E-04  0.00000000E+00 -2.66733586E-06  0.00000000E+00  0.00000000E+00
  7.59665348E-05  1.54311843E-05 -1.60135891E-04  0.00000000E+00  0.00000000E+00
 -5.37326404E-04 -2.35935770E-05  9.76830114E-01 -9.16313221E-03  4.34497694E-02
  1.63606201E-04 -1.14038784E-03 -1.56195400E-03  1.44260488E-03  0.00000000E+00
  1.57417441E-03 -1.28526435E-03  0.00000000E+00 -5.69713402E-04 -8.66434889E-04
  0.00000000E+00  5.57032488E-05 -3.15984972E-05  0.00000000E+00  2.95170071E-05
  0.00000000E+00  0.00000000E+00 -1.18063259E-04 -2.86484645E-06  7.57520126E-04
  0.00000000E+00  0.00000000E+00 -2.02191113E-04 -2.35325450E-04 -2.66240590E-04
  0.00000000E+00  0.00000000E+00  1.68951445E-04  1.27834526E-04  0.00000000E+00
 -6.41317012E-05  1.27714133E-06  0.00000000E+00  0.00000000E+00  1.88526251E-05