title                                                                   
Freq      RMP2-FC                                                     Aug-CC-pVTZ         
Number of atoms                            I                5
Info1-9                                    I   N=           9
          64          24        1002           0           0         100
           6           2           1
Full Title                                 C   N=           1
title       
Route                                      C   N=           5
#p freq opt=(z-matrix) mp2/aug-cc-pvtz density=current      
Charge                                     I                0
Multiplicity                               I                1
Number of electrons                        I               32
Number of alpha electrons                  I               16
Number of beta electrons                   I               16
Number of basis functions                  I              207
Number of independent functions            I              207
Number of point charges in /Mol/           I                0
Number of translation vectors              I                0
Atomic numbers                             I   N=           5
           1           8           8           7           8
Nuclear charges                            R   N=           5
  1.00000000E+00  8.00000000E+00  8.00000000E+00  7.00000000E+00  8.00000000E+00
Current cartesian coordinates              R   N=          15
 -2.92739704E+00  3.18837559E+00 -3.37628945E-28 -2.74778121E+00  1.36610788E+00
 -5.61710878E-28  2.01469173E-16  1.27180267E+00 -2.58758443E-29  4.94413381E-01
 -1.44020088E+00  5.11661881E-29  2.68109414E+00 -1.77628172E+00  4.52060545E-28
Number of symbols in /Mol/                 I                0
Force Field                                I                0
Atom Types                                 C   N=           5
                                                            
Int Atom Types                             I   N=           5
           0           0           0           0           0
MM charges                                 R   N=           5
  0.00000000E+00  0.00000000E+00  0.00000000E+00  0.00000000E+00  0.00000000E+00
Integer atomic weights                     I   N=           5
           1          16          16          14          16
Real atomic weights                        R   N=           5
  1.00782504E+00  1.59949146E+01  1.59949146E+01  1.40030740E+01  1.59949146E+01
Atom fragment info                         I   N=           5
           0           0           0           0           0
Atom residue num                           I   N=           5
           0           0           0           0           0
Nuclear spins                              I   N=           5
           1           0           0           2           0
Nuclear ZEff                               R   N=           5
 -1.00000000E+00 -5.60000000E+00 -5.60000000E+00 -4.55000000E+00 -5.60000000E+00
Nuclear ZNuc                               R   N=           5
  1.00000000E+00  8.00000000E+00  8.00000000E+00  7.00000000E+00  8.00000000E+00
Nuclear QMom                               R   N=           5
  0.00000000E+00  0.00000000E+00  0.00000000E+00  2.04400000E+00  0.00000000E+00
Nuclear GFac                               R   N=           5
  2.79284600E+00  0.00000000E+00  0.00000000E+00  4.03761000E-01  0.00000000E+00
MicOpt                                     I   N=           5
          -1          -1          -1          -1          -1
Number of residues                         I                0
Number of secondary structures             I                0
SymInf integers                            I   N=          26
           1           2           1           1           1           1
           1          -1           0           0           0           0
           0           0           0           0           0           0
           0           0           0           0           0           0
           0           0
RotTr to input orientation                 R   N=          12
  9.95177366E-01  2.99766277E-13  9.80918451E-02  9.80918451E-02 -3.32117383E-14
 -9.95177366E-01 -2.95062813E-13  1.00000000E+00 -6.24561975E-14  2.60052563E+00
  4.79507234E-13  3.46015300E+00
Number of contracted shells                I               65
Number of primitive shells                 I              119
Pure/Cartesian d shells                    I                0
Pure/Cartesian f shells                    I                0
Highest angular momentum                   I                3
Largest degree of contraction              I                7
Shell types                                I   N=          65
           0           0           0           0           1           1
           1          -2          -2           0           0           0
           0           0           1           1           1           1
          -2          -2          -2          -3          -3           0
           0           0           0           0           1           1
           1           1          -2          -2          -2          -3
          -3           0           0           0           0           0
           1           1           1           1          -2          -2
          -2          -3          -3           0           0           0
           0           0           1           1           1           1
          -2          -2          -2          -3          -3
Number of primitives per shell             I   N=          65
           3           1           1           1           1           1
           1           1           1           7           6           1
           1           1           3           1           1           1
           1           1           1           1           1           7
           6           1           1           1           3           1
           1           1           1           1           1           1
           1           7           6           1           1           1
           3           1           1           1           1           1
           1           1           1           7           6           1
           1           1           3           1           1           1
           1           1           1           1           1
Shell to atom map                          I   N=          65
           1           1           1           1           1           1
           1           1           1           2           2           2
           2           2           2           2           2           2
           2           2           2           2           2           3
           3           3           3           3           3           3
           3           3           3           3           3           3
           3           4           4           4           4           4
           4           4           4           4           4           4
           4           4           4           5           5           5
           5           5           5           5           5           5
           5           5           5           5           5
Primitive exponents                        R   N=         119
  3.38700000E+01  5.09500000E+00  1.15900000E+00  3.25800000E-01  1.02700000E-01
  2.52600000E-02  1.40700000E+00  3.88000000E-01  1.02000000E-01  1.05700000E+00
  2.47000000E-01  1.53300000E+04  2.29900000E+03  5.22400000E+02  1.47300000E+02
  4.75500000E+01  1.67600000E+01  6.20700000E+00  5.22400000E+02  1.47300000E+02
  4.75500000E+01  1.67600000E+01  6.20700000E+00  6.88200000E-01  1.75200000E+00
  2.38400000E-01  7.37600000E-02  3.44600000E+01  7.74900000E+00  2.28000000E+00
  7.15600000E-01  2.14000000E-01  5.97400000E-02  2.31400000E+00  6.45000000E-01
  2.14000000E-01  1.42800000E+00  5.00000000E-01  1.53300000E+04  2.29900000E+03
  5.22400000E+02  1.47300000E+02  4.75500000E+01  1.67600000E+01  6.20700000E+00
  5.22400000E+02  1.47300000E+02  4.75500000E+01  1.67600000E+01  6.20700000E+00
  6.88200000E-01  1.75200000E+00  2.38400000E-01  7.37600000E-02  3.44600000E+01
  7.74900000E+00  2.28000000E+00  7.15600000E-01  2.14000000E-01  5.97400000E-02
  2.31400000E+00  6.45000000E-01  2.14000000E-01  1.42800000E+00  5.00000000E-01
  1.14200000E+04  1.71200000E+03  3.89300000E+02  1.10000000E+02  3.55700000E+01
  1.25400000E+01  4.64400000E+00  3.89300000E+02  1.10000000E+02  3.55700000E+01
  1.25400000E+01  4.64400000E+00  5.11800000E-01  1.29300000E+00  1.78700000E-01
  5.76000000E-02  2.66300000E+01  5.94800000E+00  1.74200000E+00  5.55000000E-01
  1.72500000E-01  4.91000000E-02  1.65400000E+00  4.69000000E-01  1.51000000E-01
  1.09300000E+00  3.64000000E-01  1.53300000E+04  2.29900000E+03  5.22400000E+02
  1.47300000E+02  4.75500000E+01  1.67600000E+01  6.20700000E+00  5.22400000E+02
  1.47300000E+02  4.75500000E+01  1.67600000E+01  6.20700000E+00  6.88200000E-01
  1.75200000E+00  2.38400000E-01  7.37600000E-02  3.44600000E+01  7.74900000E+00
  2.28000000E+00  7.15600000E-01  2.14000000E-01  5.97400000E-02  2.31400000E+00
  6.45000000E-01  2.14000000E-01  1.42800000E+00  5.00000000E-01
Contraction coefficients                   R   N=         119
  2.54948632E-02  1.90362766E-01  8.52162022E-01  1.00000000E+00  1.00000000E+00
  1.00000000E+00  1.00000000E+00  1.00000000E+00  1.00000000E+00  1.00000000E+00
  1.00000000E+00  5.19808943E-04  4.02025621E-03  2.07128267E-02  8.10105536E-02
  2.35962985E-01  4.42653446E-01  3.57064423E-01 -4.42115008E-05 -1.22591041E-03
 -1.05517725E-02 -6.74452633E-02 -1.71198607E-01  1.07329856E+00  1.00000000E+00
  1.00000000E+00  1.00000000E+00  4.11634896E-02  2.57762836E-01  8.02419274E-01
  1.00000000E+00  1.00000000E+00  1.00000000E+00  1.00000000E+00  1.00000000E+00
  1.00000000E+00  1.00000000E+00  1.00000000E+00  5.19808943E-04  4.02025621E-03
  2.07128267E-02  8.10105536E-02  2.35962985E-01  4.42653446E-01  3.57064423E-01
 -4.42115008E-05 -1.22591041E-03 -1.05517725E-02 -6.74452633E-02 -1.71198607E-01
  1.07329856E+00  1.00000000E+00  1.00000000E+00  1.00000000E+00  4.11634896E-02
  2.57762836E-01  8.02419274E-01  1.00000000E+00  1.00000000E+00  1.00000000E+00
  1.00000000E+00  1.00000000E+00  1.00000000E+00  1.00000000E+00  1.00000000E+00
  5.34563860E-04  4.13435660E-03  2.12335358E-02  8.25006224E-02  2.38138871E-01
  4.42551547E-01  3.53757422E-01 -4.89867350E-05 -1.19527323E-03 -1.03490714E-02
 -6.48680190E-02 -1.71552477E-01  1.07289568E+00  1.00000000E+00  1.00000000E+00
  1.00000000E+00  3.98072123E-02  2.49002660E-01  8.10479727E-01  1.00000000E+00
  1.00000000E+00  1.00000000E+00  1.00000000E+00  1.00000000E+00  1.00000000E+00
  1.00000000E+00  1.00000000E+00  5.19808943E-04  4.02025621E-03  2.07128267E-02
  8.10105536E-02  2.35962985E-01  4.42653446E-01  3.57064423E-01 -4.42115008E-05
 -1.22591041E-03 -1.05517725E-02 -6.74452633E-02 -1.71198607E-01  1.07329856E+00
  1.00000000E+00  1.00000000E+00  1.00000000E+00  4.11634896E-02  2.57762836E-01
  8.02419274E-01  1.00000000E+00  1.00000000E+00  1.00000000E+00  1.00000000E+00
  1.00000000E+00  1.00000000E+00  1.00000000E+00  1.00000000E+00
Coordinates of each shell                  R   N=         195
 -2.92739704E+00  3.18837559E+00 -2.99674478E-28 -2.92739704E+00  3.18837559E+00
 -2.99674478E-28 -2.92739704E+00  3.18837559E+00 -2.99674478E-28 -2.92739704E+00
  3.18837559E+00 -2.99674478E-28 -2.92739704E+00  3.18837559E+00 -2.99674478E-28
 -2.92739704E+00  3.18837559E+00 -2.99674478E-28 -2.92739704E+00  3.18837559E+00
 -2.99674478E-28 -2.92739704E+00  3.18837559E+00 -2.99674478E-28 -2.92739704E+00
  3.18837559E+00 -2.99674478E-28 -2.74778121E+00  1.36610788E+00 -3.22038425E-28
 -2.74778121E+00  1.36610788E+00 -3.22038425E-28 -2.74778121E+00  1.36610788E+00
 -3.22038425E-28 -2.74778121E+00  1.36610788E+00 -3.22038425E-28 -2.74778121E+00
  1.36610788E+00 -3.22038425E-28 -2.74778121E+00  1.36610788E+00 -3.22038425E-28
 -2.74778121E+00  1.36610788E+00 -3.22038425E-28 -2.74778121E+00  1.36610788E+00
 -3.22038425E-28 -2.74778121E+00  1.36610788E+00 -3.22038425E-28 -2.74778121E+00
  1.36610788E+00 -3.22038425E-28 -2.74778121E+00  1.36610788E+00 -3.22038425E-28
 -2.74778121E+00  1.36610788E+00 -3.22038425E-28 -2.74778121E+00  1.36610788E+00
 -3.22038425E-28 -2.74778121E+00  1.36610788E+00 -3.22038425E-28 -1.88951130E-18
  1.27180267E+00  3.18615625E-29 -1.88951130E-18  1.27180267E+00  3.18615625E-29
 -1.88951130E-18  1.27180267E+00  3.18615625E-29 -1.88951130E-18  1.27180267E+00
  3.18615625E-29 -1.88951130E-18  1.27180267E+00  3.18615625E-29 -1.88951130E-18
  1.27180267E+00  3.18615625E-29 -1.88951130E-18  1.27180267E+00  3.18615625E-29
 -1.88951130E-18  1.27180267E+00  3.18615625E-29 -1.88951130E-18  1.27180267E+00
  3.18615625E-29 -1.88951130E-18  1.27180267E+00  3.18615625E-29 -1.88951130E-18
  1.27180267E+00  3.18615625E-29 -1.88951130E-18  1.27180267E+00  3.18615625E-29
 -1.88951130E-18  1.27180267E+00  3.18615625E-29 -1.88951130E-18  1.27180267E+00
  3.18615625E-29  4.94413381E-01 -1.44020088E+00  2.80226600E-29  4.94413381E-01
 -1.44020088E+00  2.80226600E-29  4.94413381E-01 -1.44020088E+00  2.80226600E-29
  4.94413381E-01 -1.44020088E+00  2.80226600E-29  4.94413381E-01 -1.44020088E+00
  2.80226600E-29  4.94413381E-01 -1.44020088E+00  2.80226600E-29  4.94413381E-01
 -1.44020088E+00  2.80226600E-29  4.94413381E-01 -1.44020088E+00  2.80226600E-29
  4.94413381E-01 -1.44020088E+00  2.80226600E-29  4.94413381E-01 -1.44020088E+00
  2.80226600E-29  4.94413381E-01 -1.44020088E+00  2.80226600E-29  4.94413381E-01
 -1.44020088E+00  2.80226600E-29  4.94413381E-01 -1.44020088E+00  2.80226600E-29
  4.94413381E-01 -1.44020088E+00  2.80226600E-29  2.68109414E+00 -1.77628172E+00
  3.03116344E-28  2.68109414E+00 -1.77628172E+00  3.03116344E-28  2.68109414E+00
 -1.77628172E+00  3.03116344E-28  2.68109414E+00 -1.77628172E+00  3.03116344E-28
  2.68109414E+00 -1.77628172E+00  3.03116344E-28  2.68109414E+00 -1.77628172E+00
  3.03116344E-28  2.68109414E+00 -1.77628172E+00  3.03116344E-28  2.68109414E+00
 -1.77628172E+00  3.03116344E-28  2.68109414E+00 -1.77628172E+00  3.03116344E-28
  2.68109414E+00 -1.77628172E+00  3.03116344E-28  2.68109414E+00 -1.77628172E+00
  3.03116344E-28  2.68109414E+00 -1.77628172E+00  3.03116344E-28  2.68109414E+00
 -1.77628172E+00  3.03116344E-28  2.68109414E+00 -1.77628172E+00  3.03116344E-28
Num ILSW                                   I              100
ILSW                                       I   N=         100
           0           0           0           0           2           0
           0           0           0           0           0          -1
           5           0           0           0           2           0
           0           0           0           0           1           0
           1           0           0           0           0           0
           0           0      100000           0          -1           0
           0           0           0           0           0           0
           0           0           0           1           1           0
           0 -2000000000           1           0           0           0
           0           0           4          52           0           0
           0           0           0           0           0           0
           0           0           0           5           4           1
           0           0           0           0           0           0
           0           0           0           0           0           0
           0           0           0           0           0           0
           0           0           0           0           0           0
           0           0           0           0
Num RLSW                                   I               52
RLSW                                       R   N=          52
  1.00000000E+00  1.00000000E+00  1.00000000E+00  1.00000000E+00  1.00000000E+00
  0.00000000E+00  0.00000000E+00  1.00000000E+00  0.00000000E+00  0.00000000E+00
  0.00000000E+00  0.00000000E+00  1.00000000E+00  0.00000000E+00  0.00000000E+00
  0.00000000E+00  0.00000000E+00  1.00000000E+00  0.00000000E+00  0.00000000E+00
  0.00000000E+00  0.00000000E+00  1.00000000E+00  0.00000000E+00  0.00000000E+00
  0.00000000E+00  0.00000000E+00  1.00000000E+00  0.00000000E+00  0.00000000E+00
  0.00000000E+00  0.00000000E+00  1.00000000E+00  0.00000000E+00  0.00000000E+00
  0.00000000E+00  0.00000000E+00  0.00000000E+00  1.00000000E+00  1.00000000E+00
  0.00000000E+00  1.00000000E+00  0.00000000E+00  0.00000000E+00  0.00000000E+00
  0.00000000E+00  0.00000000E+00  0.00000000E+00  0.00000000E+00  0.00000000E+00
  0.00000000E+00  0.00000000E+00
MxBond                                     I                2
NBond                                      I   N=           5
           1           2           2           2           1
IBond                                      I   N=          10
           2           0           1           3           2           4
           3           5           4           0
RBond                                      R   N=          10
  1.00000000E+00  0.00000000E+00  1.00000000E+00  1.00000000E+00  1.00000000E+00
  1.00000000E+00  1.00000000E+00  1.00000000E+00  1.00000000E+00  0.00000000E+00
Virial Ratio                               R      2.002353824211833E+00
SCF Energy                                 R     -2.795016878683117E+02
MP2 Energy                                 R     -2.804467347255745E+02
Total Energy                               R     -2.804467347255745E+02
Post-SCF wavefunction norm                 R      1.584234529050469E+00
RMS Force                                  R      1.685417847493495E-04
RMS Density                                R      1.424366393283617E-09
NImag                                      I                1
Job Status                                 I                1
Nuclear derivative order                   I                2
External E-field                           R   N=          35
  0.00000000E+00  0.00000000E+00  0.00000000E+00  0.00000000E+00  0.00000000E+00
  0.00000000E+00  0.00000000E+00  0.00000000E+00  0.00000000E+00  0.00000000E+00
  0.00000000E+00  0.00000000E+00  0.00000000E+00  0.00000000E+00  0.00000000E+00
  0.00000000E+00  0.00000000E+00  0.00000000E+00  0.00000000E+00  0.00000000E+00
  0.00000000E+00  0.00000000E+00  0.00000000E+00  0.00000000E+00  0.00000000E+00
  0.00000000E+00  0.00000000E+00  0.00000000E+00  0.00000000E+00  0.00000000E+00
  0.00000000E+00  0.00000000E+00  0.00000000E+00  0.00000000E+00  0.00000000E+00
IOpCl                                      I                0
IROHF                                      I                0
Alpha Orbital Energies                     R   N=         207
 -2.06908843E+01 -2.06842969E+01 -2.06599815E+01 -1.58128344E+01 -1.62403175E+00
 -1.49574488E+00 -1.25441054E+00 -9.48067178E-01 -7.72782514E-01 -7.59181579E-01
 -7.11794059E-01 -6.79372630E-01 -6.20457328E-01 -5.89430690E-01 -4.85224607E-01
 -4.72501875E-01  2.96273591E-02  7.16730348E-02  8.59446374E-02  1.01718623E-01
  1.33950913E-01  1.33956905E-01  1.44078436E-01  1.54532672E-01  1.78258253E-01
  1.94174137E-01  1.99807055E-01  2.06364761E-01  2.20814956E-01  2.35423723E-01
  2.37379596E-01  2.66047673E-01  2.93430528E-01  3.03883781E-01  3.10461319E-01
  3.43437356E-01  3.49737063E-01  3.87220689E-01  4.21998135E-01  4.31641874E-01
  5.27337608E-01  5.29245262E-01  5.58502884E-01  5.81651164E-01  6.25951263E-01
  6.38292753E-01  6.74465576E-01  6.84462297E-01  7.06391200E-01  7.11135480E-01
  7.24107461E-01  7.29400217E-01  7.44666297E-01  7.91556517E-01  7.92046094E-01
  8.10313053E-01  8.12710470E-01  8.30593304E-01  8.68232265E-01  9.08296925E-01
  9.21952574E-01  9.26316558E-01  9.56605757E-01  9.77526755E-01  9.84631303E-01
  1.01646684E+00  1.05199933E+00  1.05482084E+00  1.08237119E+00  1.11765998E+00
  1.14119731E+00  1.18949357E+00  1.22077433E+00  1.23266738E+00  1.33884781E+00
  1.35046226E+00  1.38623733E+00  1.45347767E+00  1.48779565E+00  1.50897491E+00
  1.53804073E+00  1.56693706E+00  1.57972481E+00  1.61325586E+00  1.66419951E+00
  1.66963706E+00  1.70328577E+00  1.79316631E+00  1.83128247E+00  1.83470736E+00
  1.87829907E+00  1.91014990E+00  1.95621114E+00  1.99216160E+00  2.00570908E+00
  2.07769481E+00  2.12098977E+00  2.13202270E+00  2.14990242E+00  2.22445156E+00
  2.26460465E+00  2.26466617E+00  2.28957914E+00  2.31433930E+00  2.34406677E+00
  2.38614241E+00  2.42444475E+00  2.42883847E+00  2.45415526E+00  2.46283415E+00
  2.47670276E+00  2.50130798E+00  2.58948645E+00  2.59659710E+00  2.62096186E+00
  2.62472289E+00  2.63459648E+00  2.66754840E+00  2.75752479E+00  2.82492466E+00
  2.85562325E+00  2.88426403E+00  2.89395069E+00  2.92410750E+00  2.95805115E+00
  3.02514081E+00  3.06813692E+00  3.12165296E+00  3.20468004E+00  3.22664181E+00
  3.31667394E+00  3.34163829E+00  3.51706762E+00  3.64345122E+00  3.83842105E+00
  3.84451388E+00  4.14869595E+00  4.16306431E+00  4.18378906E+00  4.25761543E+00
  4.35163330E+00  4.39325262E+00  4.46331204E+00  4.51918897E+00  4.66182187E+00
  4.71062607E+00  4.80517189E+00  4.82479419E+00  4.82888902E+00  4.89576452E+00
  5.02325759E+00  5.07750365E+00  5.10346234E+00  5.14435465E+00  5.17906346E+00
  5.24249873E+00  5.27217011E+00  5.30829836E+00  5.32962149E+00  5.35518489E+00
  5.60646118E+00  5.67364340E+00  5.76947224E+00  5.82897460E+00  5.95739236E+00
  6.16859479E+00  6.30873961E+00  6.33828389E+00  6.39440182E+00  6.49361576E+00
  6.50539584E+00  6.61374405E+00  6.66798959E+00  6.69952422E+00  6.75776890E+00
  6.76338943E+00  6.83267771E+00  6.89830894E+00  7.01348037E+00  7.05638032E+00
  7.05695145E+00  7.09009165E+00  7.12439193E+00  7.14971623E+00  7.18153927E+00
  7.22505518E+00  7.24175654E+00  7.30724900E+00  7.32516024E+00  7.34740326E+00
  7.39940646E+00  7.43147540E+00  7.48452291E+00  7.60795896E+00  7.61799996E+00
  7.62688511E+00  7.66573778E+00  7.78928566E+00  7.88682558E+00  8.09288375E+00
  8.31467452E+00  8.40918644E+00  8.54431659E+00  1.33911246E+01  1.43933376E+01
  1.51618728E+01  1.61524284E+01
Alpha MO coefficients                      R   N=       42849
  9.19654719E-05 -6.39833972E-04 -7.27300616E-04 -4.52145838E-06  2.13622925E-05
 -2.69665117E-05  0.00000000E+00  4.35396184E-05  6.04202520E-05  0.00000000E+00
 -8.71978811E-05  3.62397818E-05  0.00000000E+00  3.18591526E-05  0.00000000E+00
  0.00000000E+00 -4.97258498E-05 -2.10118741E-05 -5.13124614E-06  0.00000000E+00
  0.00000000E+00 -1.38831976E-04 -1.17797624E-04  4.58321186E-03 -2.81946102E-04
  1.45369133E-05  1.55685948E-03  1.82446666E-03 -1.06254738E-04  7.49079313E-06
  0.00000000E+00  6.17175694E-04 -3.58543515E-05  0.00000000E+00  1.10259545E-03
  7.93047593E-04  0.00000000E+00  4.03397759E-04  6.32876944E-05  0.00000000E+00
  2.88494860E-05  0.00000000E+00  0.00000000E+00 -5.41494466E-05 -5.79992326E-06
 -3.78388394E-04  0.00000000E+00  0.00000000E+00  7.40383281E-04  3.21068139E-05
 -4.46894311E-04  0.00000000E+00  0.00000000E+00  2.42772147E-04  1.52212182E-05
  0.00000000E+00 -8.00749413E-05  1.27196783E-05  0.00000000E+00  0.00000000E+00
  1.09597204E-04 -3.35897865E-06  0.00000000E+00 -2.54924543E-04 -2.76699967E-05
  0.00000000E+00  0.00000000E+00  3.53411689E-04  5.00561576E-05  9.76911207E-01
 -9.21607843E-03  4.33184385E-02  2.03864537E-03 -9.18790702E-04 -1.49421338E-03
 -1.35505481E-03  0.00000000E+00  1.43612363E-03  1.38378043E-03  0.00000000E+00
 -8.14094025E-05 -1.16162197E-03  0.00000000E+00  1.35165489E-04 -1.22610402E-05
  0.00000000E+00  4.62645468E-05  0.00000000E+00  0.00000000E+00 -3.52349605E-05
 -2.13799291E-05  7.47268932E-04  0.00000000E+00  0.00000000E+00 -2.32666165E-04
  3.89655827E-04 -3.59642287E-04  0.00000000E+00  0.00000000E+00 -3.12829095E-04
  3.74341330E-04  0.00000000E+00 -4.74505890E-05 -4.89569797E-05  0.00000000E+00
  0.00000000E+00  3.89915270E-05 -1.57538149E-05  0.00000000E+00 -2.34388610E-05
  2.19814207E-05  0.00000000E+00  0.00000000E+00  3.05248993E-04 -1.39644844E-04
  3.90522968E-05  4.57812927E-05 -2.64403439E-04 -7.02414532E-04 -1.43250133E-04
  2.70088286E-05 -9.74659742E-05  0.00000000E+00 -2.69793829E-04  7.09392698E-04
  0.00000000E+00  8.36551723E-04 -4.78667679E-04  0.00000000E+00  1.25403583E-04
 -2.74401682E-05  0.00000000E+00 -1.81277834E-05  0.00000000E+00  0.00000000E+00
 -2.96205222E-05 -1.50845708E-05 -3.28657845E-04  0.00000000E+00  0.00000000E+00
 -8.28302595E-04 -1.27649828E-04 -3.63196191E-05  0.00000000E+00  0.00000000E+00
  9.67751803E-05  1.16842306E-04  0.00000000E+00  2.06603556E-05 -1.20067921E-04
  0.00000000E+00  0.00000000E+00  6.26196836E-05 -1.37803550E-04  0.00000000E+00
 -2.96684512E-06 -1.52640627E-04  0.00000000E+00  0.00000000E+00 -4.41131941E-05
 -4.18058167E-04 -2.57432940E-03  1.21869882E-04 -1.23325847E-04 -2.45221188E-04
  1.35558787E-04  7.95074679E-06 -2.77548173E-05  0.00000000E+00 -6.91644387E-05
  1.63660769E-04  0.00000000E+00 -2.33181940E-04  2.00210292E-04  0.00000000E+00
 -1.26831531E-04  2.39181683E-05  0.00000000E+00 -3.34384562E-06  0.00000000E+00
  0.00000000E+00 -1.78925061E-05 -1.22726059E-06  6.97490175E-07  0.00000000E+00
  0.00000000E+00  8.02978867E-05 -8.76721865E-05 -1.00172759E-04  0.00000000E+00
  0.00000000E+00  1.66498429E-04 -1.61711802E-04  0.00000000E+00 -1.58662817E-05
 -3.52739127E-06  0.00000000E+00  0.00000000E+00  4.31806524E-06 -1.19561582E-05
  0.00000000E+00  3.35912838E-05  4.53829084E-05  0.00000000E+00  0.00000000E+00
 -8.36115598E-05  8.99986980E-05  3.90820909E-05 -9.90234605E-04 -4.87616705E-04
 -1.08626366E-05  2.21396295E-05  1.60555388E-05  0.00000000E+00 -3.90485708E-07
  2.75069838E-04  0.00000000E+00  4.17713820E-05  1.33839494E-04  0.00000000E+00
  2.60118073E-05  0.00000000E+00  0.00000000E+00  1.25047014E-05 -1.09737447E-05
 -2.75098303E-05  0.00000000E+00  0.00000000E+00  1.13349411E-05 -3.47980884E-05
  1.12321370E-04  8.41176993E-05 -2.80605848E-05  7.53074847E-04  6.53122743E-04
 -1.02404308E-05  2.48722692E-06  0.00000000E+00  7.28921885E-05  1.61619312E-05
  0.00000000E+00 -3.33684067E-04  9.02256993E-04  0.00000000E+00 -3.48943055E-06
  8.15524134E-05  0.00000000E+00 -2.27411670E-06  0.00000000E+00  0.00000000E+00
 -1.21225087E-07  6.06381664E-06 -3.59214930E-05  0.00000000E+00  0.00000000E+00
 -2.00327477E-05 -8.35581881E-05 -2.31904529E-05  0.00000000E+00  0.00000000E+00
 -2.67959263E-04  1.62487057E-04  0.00000000E+00 -9.18864043E-06  6.01170418E-06
  0.00000000E+00  0.00000000E+00 -2.67478601E-06 -1.87410449E-05  0.00000000E+00
  4.03465169E-05 -3.81979514E-05  0.00000000E+00  0.00000000E+00  7.67126066E-05
  1.98267507E-05  2.61325353E-03  3.93159349E-05  9.11454961E-05 -6.91367782E-05
 -4.68750165E-04 -7.28893605E-06  1.57870326E-05  0.00000000E+00  6.22339177E-05
 -5.54663065E-05  0.00000000E+00 -2.35114290E-04 -1.88364449E-04  0.00000000E+00
  1.88027716E-04 -6.43844063E-05  0.00000000E+00 -8.71607152E-06  0.00000000E+00
  0.00000000E+00  2.23959515E-05 -1.97854731E-05  4.42184858E-06  0.00000000E+00
  0.00000000E+00 -1.17460388E-04  4.65376286E-05 -4.24454293E-06  0.00000000E+00
  0.00000000E+00 -2.22161639E-04  2.06548021E-04  0.00000000E+00 -3.26165016E-06
 -5.45229498E-07  0.00000000E+00  0.00000000E+00 -1.72152941E-06 -1.35860395E-05
  0.00000000E+00  4.64598958E-05  3.52270070E-06  0.00000000E+00  0.00000000E+00
  7.64001983E-05  1.87948512E-04  2.58690414E-04  1.46517254E-03 -7.80305729E-05
 -1.53924456E-03  3.97584214E-04  1.44481651E-04  1.43885736E-07  0.00000000E+00
  2.08954817E-03 -4.03933212E-04  0.00000000E+00 -1.03782934E-03  7.62620498E-04
  0.00000000E+00  1.70665187E-04  5.57023070E-05  0.00000000E+00 -1.23347606E-04
  0.00000000E+00  0.00000000E+00  2.43103575E-04 -9.40647292E-05 -4.42262988E-04
  0.00000000E+00  0.00000000E+00  8.98993518E-04  6.62191433E-05  1.16565767E-05
  0.00000000E+00  0.00000000E+00 -3.38323274E-04  1.23288051E-04  0.00000000E+00
  1.30033185E-06  1.52871560E-05  0.00000000E+00  0.00000000E+00 -1.88665356E-05
  1.33663884E-05  0.00000000E+00 -1.64659807E-04 -7.17809408E-05  0.00000000E+00
  0.00000000E+00  2.40672825E-04  4.20324575E-05  9.76649287E-01 -9.84826456E-03
  4.35680355E-02  4.50086951E-03 -4.46055180E-04 -2.14814142E-03  4.80899743E-04
  0.00000000E+00  2.38404317E-03 -6.03729523E-04  0.00000000E+00 -1.13925363E-03
 -3.68918331E-06  0.00000000E+00 -4.63165501E-06 -4.24302643E-05  0.00000000E+00
 -2.32343914E-04  0.00000000E+00  0.00000000E+00  1.02733881E-04 -3.18448094E-05
  3.90584500E-04  0.00000000E+00  0.00000000E+00 -8.34079902E-04  4.19196931E-04
 -1.53657074E-04  0.00000000E+00  0.00000000E+00  2.56038809E-04 -1.68623528E-05
  0.00000000E+00 -5.22720398E-05  1.76939006E-05  0.00000000E+00  0.00000000E+00
  2.21154142E-05 -1.32822107E-05  0.00000000E+00 -1.38311683E-04  9.27953443E-06
  0.00000000E+00  0.00000000E+00  1.89774408E-04 -1.40685132E-04  4.74825183E-04
  2.06137622E-03  1.15457620E-04  1.49488864E-05  4.11676585E-05 -2.46820415E-04
  0.00000000E+00 -1.11311959E-04 -1.27519863E-03  0.00000000E+00 -3.10785415E-04
 -3.38423254E-04  0.00000000E+00 -2.66719752E-06  0.00000000E+00  0.00000000E+00
  7.59667734E-05 -1.54311817E-05 -1.60135730E-04  0.00000000E+00  0.00000000E+00
 -5.37326180E-04  2.35936739E-05  9.76830114E-01 -9.16313197E-03  4.34497698E-02
  1.63608999E-04 -1.14038614E-03  1.56195506E-03  1.44260379E-03  0.00000000E+00
 -1.57417545E-03 -1.28526268E-03  0.00000000E+00  5.69713459E-04 -8.66433262E-04
  0.00000000E+00 -5.57030372E-05 -3.15985805E-05  0.00000000E+00  2.95168785E-05
  0.00000000E+00  0.00000000E+00 -1.18063107E-04  2.86507219E-06  7.57519891E-04
  0.00000000E+00  0.00000000E+00 -2.02191682E-04  2.35325551E-04 -2.66240921E-04
  0.00000000E+00  0.00000000E+00  1.68951187E-04 -1.27834603E-04  0.00000000E+00
  6.41317539E-05  1.27706737E-06  0.00000000E+00  0.00000000E+00 -1.88526359E-05