title                                                                   
SP        RMP2-FC                                                     Aug-CC-pVTZ         
Number of atoms                            I                5
Info1-9                                    I   N=           9
          33          24           0           0           0         110
           1           2           1
Full Title                                 C   N=           1
title       
Route                                      C   N=           4
#p SP mp2/aug-cc-pvtz density=current           
Charge                                     I                0
Multiplicity                               I                1
Number of electrons                        I               32
Number of alpha electrons                  I               16
Number of beta electrons                   I               16
Number of basis functions                  I              207
Number of independent functions            I              207
Number of point charges in /Mol/           I                0
Number of translation vectors              I                0
Atomic numbers                             I   N=           5
           1           8           8           7           8
Nuclear charges                            R   N=           5
  1.00000000E+00  8.00000000E+00  8.00000000E+00  7.00000000E+00  8.00000000E+00
Current cartesian coordinates              R   N=          15
  2.92956396E+00  3.20855566E+00  1.33478053E-31  2.74778600E+00  1.36531238E+00
  1.20394637E-31 -5.80458390E-17  1.27114689E+00  6.49075303E-33 -4.94551284E-01
 -1.44083151E+00  2.06834972E-32 -2.68124912E+00 -1.77680116E+00 -5.85530638E-32
Number of symbols in /Mol/                 I                0
Force Field                                I                0
Atom Types                                 C   N=           5
                                                            
Int Atom Types                             I   N=           5
           0           0           0           0           0
MM charges                                 R   N=           5
  0.00000000E+00  0.00000000E+00  0.00000000E+00  0.00000000E+00  0.00000000E+00
Integer atomic weights                     I   N=           5
           1          16          16          14          16
Real atomic weights                        R   N=           5
  1.00782504E+00  1.59949146E+01  1.59949146E+01  1.40030740E+01  1.59949146E+01
Atom fragment info                         I   N=           5
           0           0           0           0           0
Atom residue num                           I   N=           5
           0           0           0           0           0
Nuclear spins                              I   N=           5
           1           0           0           2           0
Nuclear ZEff                               R   N=           5
 -1.00000000E+00 -5.60000000E+00 -5.60000000E+00 -4.55000000E+00 -5.60000000E+00
Nuclear ZNuc                               R   N=           5
  1.00000000E+00  8.00000000E+00  8.00000000E+00  7.00000000E+00  8.00000000E+00
Nuclear QMom                               R   N=           5
  0.00000000E+00  0.00000000E+00  0.00000000E+00  2.04400000E+00  0.00000000E+00
Nuclear GFac                               R   N=           5
  2.79284600E+00  0.00000000E+00  0.00000000E+00  4.03761000E-01  0.00000000E+00
MicOpt                                     I   N=           5
          -1          -1          -1          -1          -1
Number of residues                         I                0
Number of secondary structures             I                0
SymInf integers                            I   N=          26
           1           2           1           1           1           1
           1          -1           0           0           0           0
           0           0           0           0           0           0
           0           0           0           0           0           0
           0           0
RotTr to input orientation                 R   N=          12
 -9.95172377E-01 -9.84106233E-17 -9.81424492E-02  9.81424492E-02 -7.28899654E-17
 -9.95172377E-01  9.07819342E-17 -1.00000000E+00  8.21963397E-17  2.60052562E+00
  0.00000000E+00  3.48058054E+00
Number of contracted shells                I               65
Number of primitive shells                 I              119
Pure/Cartesian d shells                    I                0
Pure/Cartesian f shells                    I                0
Highest angular momentum                   I                3
Largest degree of contraction              I                7
Shell types                                I   N=          65
           0           0           0           0           1           1
           1          -2          -2           0           0           0
           0           0           1           1           1           1
          -2          -2          -2          -3          -3           0
           0           0           0           0           1           1
           1           1          -2          -2          -2          -3
          -3           0           0           0           0           0
           1           1           1           1          -2          -2
          -2          -3          -3           0           0           0
           0           0           1           1           1           1
          -2          -2          -2          -3          -3
Number of primitives per shell             I   N=          65
           3           1           1           1           1           1
           1           1           1           7           6           1
           1           1           3           1           1           1
           1           1           1           1           1           7
           6           1           1           1           3           1
           1           1           1           1           1           1
           1           7           6           1           1           1
           3           1           1           1           1           1
           1           1           1           7           6           1
           1           1           3           1           1           1
           1           1           1           1           1
Shell to atom map                          I   N=          65
           1           1           1           1           1           1
           1           1           1           2           2           2
           2           2           2           2           2           2
           2           2           2           2           2           3
           3           3           3           3           3           3
           3           3           3           3           3           3
           3           4           4           4           4           4
           4           4           4           4           4           4
           4           4           4           5           5           5
           5           5           5           5           5           5
           5           5           5           5           5
Primitive exponents                        R   N=         119
  3.38700000E+01  5.09500000E+00  1.15900000E+00  3.25800000E-01  1.02700000E-01
  2.52600000E-02  1.40700000E+00  3.88000000E-01  1.02000000E-01  1.05700000E+00
  2.47000000E-01  1.53300000E+04  2.29900000E+03  5.22400000E+02  1.47300000E+02
  4.75500000E+01  1.67600000E+01  6.20700000E+00  5.22400000E+02  1.47300000E+02
  4.75500000E+01  1.67600000E+01  6.20700000E+00  6.88200000E-01  1.75200000E+00
  2.38400000E-01  7.37600000E-02  3.44600000E+01  7.74900000E+00  2.28000000E+00
  7.15600000E-01  2.14000000E-01  5.97400000E-02  2.31400000E+00  6.45000000E-01
  2.14000000E-01  1.42800000E+00  5.00000000E-01  1.53300000E+04  2.29900000E+03
  5.22400000E+02  1.47300000E+02  4.75500000E+01  1.67600000E+01  6.20700000E+00
  5.22400000E+02  1.47300000E+02  4.75500000E+01  1.67600000E+01  6.20700000E+00
  6.88200000E-01  1.75200000E+00  2.38400000E-01  7.37600000E-02  3.44600000E+01
  7.74900000E+00  2.28000000E+00  7.15600000E-01  2.14000000E-01  5.97400000E-02
  2.31400000E+00  6.45000000E-01  2.14000000E-01  1.42800000E+00  5.00000000E-01
  1.14200000E+04  1.71200000E+03  3.89300000E+02  1.10000000E+02  3.55700000E+01
  1.25400000E+01  4.64400000E+00  3.89300000E+02  1.10000000E+02  3.55700000E+01
  1.25400000E+01  4.64400000E+00  5.11800000E-01  1.29300000E+00  1.78700000E-01
  5.76000000E-02  2.66300000E+01  5.94800000E+00  1.74200000E+00  5.55000000E-01
  1.72500000E-01  4.91000000E-02  1.65400000E+00  4.69000000E-01  1.51000000E-01
  1.09300000E+00  3.64000000E-01  1.53300000E+04  2.29900000E+03  5.22400000E+02
  1.47300000E+02  4.75500000E+01  1.67600000E+01  6.20700000E+00  5.22400000E+02
  1.47300000E+02  4.75500000E+01  1.67600000E+01  6.20700000E+00  6.88200000E-01
  1.75200000E+00  2.38400000E-01  7.37600000E-02  3.44600000E+01  7.74900000E+00
  2.28000000E+00  7.15600000E-01  2.14000000E-01  5.97400000E-02  2.31400000E+00
  6.45000000E-01  2.14000000E-01  1.42800000E+00  5.00000000E-01
Contraction coefficients                   R   N=         119
  2.54948632E-02  1.90362766E-01  8.52162022E-01  1.00000000E+00  1.00000000E+00
  1.00000000E+00  1.00000000E+00  1.00000000E+00  1.00000000E+00  1.00000000E+00
  1.00000000E+00  5.19808943E-04  4.02025621E-03  2.07128267E-02  8.10105536E-02
  2.35962985E-01  4.42653446E-01  3.57064423E-01 -4.42115008E-05 -1.22591041E-03
 -1.05517725E-02 -6.74452633E-02 -1.71198607E-01  1.07329856E+00  1.00000000E+00
  1.00000000E+00  1.00000000E+00  4.11634896E-02  2.57762836E-01  8.02419274E-01
  1.00000000E+00  1.00000000E+00  1.00000000E+00  1.00000000E+00  1.00000000E+00
  1.00000000E+00  1.00000000E+00  1.00000000E+00  5.19808943E-04  4.02025621E-03
  2.07128267E-02  8.10105536E-02  2.35962985E-01  4.42653446E-01  3.57064423E-01
 -4.42115008E-05 -1.22591041E-03 -1.05517725E-02 -6.74452633E-02 -1.71198607E-01
  1.07329856E+00  1.00000000E+00  1.00000000E+00  1.00000000E+00  4.11634896E-02
  2.57762836E-01  8.02419274E-01  1.00000000E+00  1.00000000E+00  1.00000000E+00
  1.00000000E+00  1.00000000E+00  1.00000000E+00  1.00000000E+00  1.00000000E+00
  5.34563860E-04  4.13435660E-03  2.12335358E-02  8.25006224E-02  2.38138871E-01
  4.42551547E-01  3.53757422E-01 -4.89867350E-05 -1.19527323E-03 -1.03490714E-02
 -6.48680190E-02 -1.71552477E-01  1.07289568E+00  1.00000000E+00  1.00000000E+00
  1.00000000E+00  3.98072123E-02  2.49002660E-01  8.10479727E-01  1.00000000E+00
  1.00000000E+00  1.00000000E+00  1.00000000E+00  1.00000000E+00  1.00000000E+00
  1.00000000E+00  1.00000000E+00  5.19808943E-04  4.02025621E-03  2.07128267E-02
  8.10105536E-02  2.35962985E-01  4.42653446E-01  3.57064423E-01 -4.42115008E-05
 -1.22591041E-03 -1.05517725E-02 -6.74452633E-02 -1.71198607E-01  1.07329856E+00
  1.00000000E+00  1.00000000E+00  1.00000000E+00  4.11634896E-02  2.57762836E-01
  8.02419274E-01  1.00000000E+00  1.00000000E+00  1.00000000E+00  1.00000000E+00
  1.00000000E+00  1.00000000E+00  1.00000000E+00  1.00000000E+00
Coordinates of each shell                  R   N=         195
  2.92956396E+00  3.20855566E+00  5.41644956E-32  2.92956396E+00  3.20855566E+00
  5.41644956E-32  2.92956396E+00  3.20855566E+00  5.41644956E-32  2.92956396E+00
  3.20855566E+00  5.41644956E-32  2.92956396E+00  3.20855566E+00  5.41644956E-32
  2.92956396E+00  3.20855566E+00  5.41644956E-32  2.92956396E+00  3.20855566E+00
  5.41644956E-32  2.92956396E+00  3.20855566E+00  5.41644956E-32  2.92956396E+00
  3.20855566E+00  5.41644956E-32  2.74778600E+00  1.36531238E+00  5.08036160E-32
  2.74778600E+00  1.36531238E+00  5.08036160E-32  2.74778600E+00  1.36531238E+00
  5.08036160E-32  2.74778600E+00  1.36531238E+00  5.08036160E-32  2.74778600E+00
  1.36531238E+00  5.08036160E-32  2.74778600E+00  1.36531238E+00  5.08036160E-32
  2.74778600E+00  1.36531238E+00  5.08036160E-32  2.74778600E+00  1.36531238E+00
  5.08036160E-32  2.74778600E+00  1.36531238E+00  5.08036160E-32  2.74778600E+00
  1.36531238E+00  5.08036160E-32  2.74778600E+00  1.36531238E+00  5.08036160E-32
  2.74778600E+00  1.36531238E+00  5.08036160E-32  2.74778600E+00  1.36531238E+00
  5.08036160E-32  2.74778600E+00  1.36531238E+00  5.08036160E-32  1.57477599E-17
  1.27114689E+00  0.00000000E+00  1.57477599E-17  1.27114689E+00  0.00000000E+00
  1.57477599E-17  1.27114689E+00  0.00000000E+00  1.57477599E-17  1.27114689E+00
  0.00000000E+00  1.57477599E-17  1.27114689E+00  0.00000000E+00  1.57477599E-17
  1.27114689E+00  0.00000000E+00  1.57477599E-17  1.27114689E+00  0.00000000E+00
  1.57477599E-17  1.27114689E+00  0.00000000E+00  1.57477599E-17  1.27114689E+00
  0.00000000E+00  1.57477599E-17  1.27114689E+00  0.00000000E+00  1.57477599E-17
  1.27114689E+00  0.00000000E+00  1.57477599E-17  1.27114689E+00  0.00000000E+00
  1.57477599E-17  1.27114689E+00  0.00000000E+00  1.57477599E-17  1.27114689E+00
  0.00000000E+00 -4.94551284E-01 -1.44083151E+00 -9.14372283E-33 -4.94551284E-01
 -1.44083151E+00 -9.14372283E-33 -4.94551284E-01 -1.44083151E+00 -9.14372283E-33
 -4.94551284E-01 -1.44083151E+00 -9.14372283E-33 -4.94551284E-01 -1.44083151E+00
 -9.14372283E-33 -4.94551284E-01 -1.44083151E+00 -9.14372283E-33 -4.94551284E-01
 -1.44083151E+00 -9.14372283E-33 -4.94551284E-01 -1.44083151E+00 -9.14372283E-33
 -4.94551284E-01 -1.44083151E+00 -9.14372283E-33 -4.94551284E-01 -1.44083151E+00
 -9.14372283E-33 -4.94551284E-01 -1.44083151E+00 -9.14372283E-33 -4.94551284E-01
 -1.44083151E+00 -9.14372283E-33 -4.94551284E-01 -1.44083151E+00 -9.14372283E-33
 -4.94551284E-01 -1.44083151E+00 -9.14372283E-33 -2.68124912E+00 -1.77680116E+00
 -4.95734205E-32 -2.68124912E+00 -1.77680116E+00 -4.95734205E-32 -2.68124912E+00
 -1.77680116E+00 -4.95734205E-32 -2.68124912E+00 -1.77680116E+00 -4.95734205E-32
 -2.68124912E+00 -1.77680116E+00 -4.95734205E-32 -2.68124912E+00 -1.77680116E+00
 -4.95734205E-32 -2.68124912E+00 -1.77680116E+00 -4.95734205E-32 -2.68124912E+00
 -1.77680116E+00 -4.95734205E-32 -2.68124912E+00 -1.77680116E+00 -4.95734205E-32
 -2.68124912E+00 -1.77680116E+00 -4.95734205E-32 -2.68124912E+00 -1.77680116E+00
 -4.95734205E-32 -2.68124912E+00 -1.77680116E+00 -4.95734205E-32 -2.68124912E+00
 -1.77680116E+00 -4.95734205E-32 -2.68124912E+00 -1.77680116E+00 -4.95734205E-32
Num ILSW                                   I              100
ILSW                                       I   N=         100
           0           0           0           0           2           0
           0           0           0           0           0          -1
           5           0           0           0           0           0
           0           0           0           0           0           0
           1           0           0           0           0           0
           0           0      100000           0          -1           0
           0           0           0           0           0           0
           0           0           0           1           0           0
           0 -2000000000           1           0           0           0
           0           0           4          52           0           0
           0           0           0           0           0           0
           0           0           0           5           0           1
           0           0           0           0           0           0
           0           0           0           0           0           0
           0           0           0           0           0           0
           0           0           0           0           0           0
           0           0           0           0
Num RLSW                                   I               52
RLSW                                       R   N=          52
  1.00000000E+00  1.00000000E+00  1.00000000E+00  1.00000000E+00  1.00000000E+00
  0.00000000E+00  0.00000000E+00  1.00000000E+00  0.00000000E+00  0.00000000E+00
  0.00000000E+00  0.00000000E+00  1.00000000E+00  0.00000000E+00  0.00000000E+00
  0.00000000E+00  0.00000000E+00  1.00000000E+00  0.00000000E+00  0.00000000E+00
  0.00000000E+00  0.00000000E+00  1.00000000E+00  0.00000000E+00  0.00000000E+00
  0.00000000E+00  0.00000000E+00  1.00000000E+00  0.00000000E+00  0.00000000E+00
  0.00000000E+00  0.00000000E+00  1.00000000E+00  0.00000000E+00  0.00000000E+00
  0.00000000E+00  0.00000000E+00  0.00000000E+00  1.00000000E+00  1.00000000E+00
  0.00000000E+00  1.00000000E+00  0.00000000E+00  0.00000000E+00  0.00000000E+00
  0.00000000E+00  0.00000000E+00  0.00000000E+00  0.00000000E+00  0.00000000E+00
  0.00000000E+00  0.00000000E+00
MxBond                                     I                2
NBond                                      I   N=           5
           1           2           2           2           1
IBond                                      I   N=          10
           2           0           1           3           2           4
           3           5           4           0
RBond                                      R   N=          10
  1.00000000E+00  0.00000000E+00  1.00000000E+00  1.00000000E+00  1.00000000E+00
  1.00000000E+00  1.00000000E+00  2.00000000E+00  2.00000000E+00  0.00000000E+00
Virial Ratio                               R      2.002425220526165E+00
SCF Energy                                 R     -2.795010425257149E+02
MP2 Energy                                 R     -2.804466236591598E+02
Total Energy                               R     -2.804466236591598E+02
Post-SCF wavefunction norm                 R      1.120417542741502E+00
RMS Density                                R      3.792499230914693E-09
Job Status                                 I                1
Nuclear derivative order                   I                0
External E-field                           R   N=          35
  0.00000000E+00  0.00000000E+00  0.00000000E+00  0.00000000E+00  0.00000000E+00
  0.00000000E+00  0.00000000E+00  0.00000000E+00  0.00000000E+00  0.00000000E+00
  0.00000000E+00  0.00000000E+00  0.00000000E+00  0.00000000E+00  0.00000000E+00
  0.00000000E+00  0.00000000E+00  0.00000000E+00  0.00000000E+00  0.00000000E+00
  0.00000000E+00  0.00000000E+00  0.00000000E+00  0.00000000E+00  0.00000000E+00
  0.00000000E+00  0.00000000E+00  0.00000000E+00  0.00000000E+00  0.00000000E+00
  0.00000000E+00  0.00000000E+00  0.00000000E+00  0.00000000E+00  0.00000000E+00
IOpCl                                      I                0
IROHF                                      I                0
Alpha Orbital Energies                     R   N=         207
 -2.06905860E+01 -2.06840831E+01 -2.06608376E+01 -1.58126048E+01 -1.62377474E+00
 -1.49439789E+00 -1.25225686E+00 -9.47810363E-01 -7.71905119E-01 -7.58268110E-01
 -7.11532647E-01 -6.77642320E-01 -6.20126814E-01 -5.88892724E-01 -4.84845188E-01
 -4.72197113E-01  2.94126289E-02  7.18437453E-02  8.59928580E-02  1.01747381E-01
  1.33959895E-01  1.34039364E-01  1.43589947E-01  1.54124773E-01  1.78412774E-01
  1.94204258E-01  1.99843690E-01  2.06359408E-01  2.20852810E-01  2.35730480E-01
  2.37483675E-01  2.65762348E-01  2.93210837E-01  3.03394493E-01  3.10042625E-01
  3.43529427E-01  3.50340869E-01  3.87037133E-01  4.20466828E-01  4.30356004E-01
  5.27424514E-01  5.29392667E-01  5.58544698E-01  5.81822115E-01  6.26083732E-01
  6.38315240E-01  6.74610539E-01  6.83421937E-01  7.06434166E-01  7.10672154E-01
  7.23231492E-01  7.29409271E-01  7.44459908E-01  7.91852589E-01  7.91917444E-01
  8.10161542E-01  8.12846205E-01  8.30443455E-01  8.68393346E-01  9.08322682E-01
  9.21605574E-01  9.26140601E-01  9.55637369E-01  9.78806186E-01  9.83102481E-01
  1.01444840E+00  1.05249921E+00  1.05482846E+00  1.08136095E+00  1.11598645E+00
  1.13987199E+00  1.18985583E+00  1.22007501E+00  1.23051326E+00  1.33916974E+00
  1.35109607E+00  1.38639436E+00  1.45040940E+00  1.48465485E+00  1.50714202E+00
  1.53835281E+00  1.56688784E+00  1.58042527E+00  1.61205870E+00  1.66501102E+00
  1.67045455E+00  1.70319655E+00  1.79267795E+00  1.83096452E+00  1.83497502E+00
  1.87866572E+00  1.90865949E+00  1.94998152E+00  1.99177376E+00  2.00394673E+00
  2.07760829E+00  2.11958114E+00  2.13215899E+00  2.15024062E+00  2.22384297E+00
  2.26391703E+00  2.26577930E+00  2.28956115E+00  2.31327562E+00  2.34327345E+00
  2.38421749E+00  2.42439448E+00  2.42787578E+00  2.45423377E+00  2.46263234E+00
  2.47615028E+00  2.50055129E+00  2.59325225E+00  2.59615975E+00  2.62140072E+00
  2.62359011E+00  2.63495281E+00  2.66968198E+00  2.75740203E+00  2.82888897E+00
  2.85526363E+00  2.88370425E+00  2.89449217E+00  2.92305233E+00  2.95817377E+00
  3.02314885E+00  3.06743996E+00  3.12343681E+00  3.20492232E+00  3.22581651E+00
  3.31517270E+00  3.34057619E+00  3.51751553E+00  3.63865227E+00  3.83247037E+00
  3.83829131E+00  4.13880963E+00  4.15910356E+00  4.18145263E+00  4.25653557E+00
  4.34207915E+00  4.39071324E+00  4.45993145E+00  4.51491711E+00  4.66073457E+00
  4.70613176E+00  4.80120759E+00  4.81093029E+00  4.82572065E+00  4.89557384E+00
  5.02330896E+00  5.07745347E+00  5.09162180E+00  5.13591000E+00  5.17324654E+00
  5.22944114E+00  5.26417339E+00  5.30647028E+00  5.30704292E+00  5.35285720E+00
  5.60081866E+00  5.67368783E+00  5.76652024E+00  5.82340546E+00  5.95626042E+00
  6.17115340E+00  6.30850416E+00  6.34036050E+00  6.39190659E+00  6.49363823E+00
  6.50540167E+00  6.61203591E+00  6.66908433E+00  6.69932914E+00  6.75829219E+00
  6.76369385E+00  6.83239713E+00  6.89839072E+00  7.00617682E+00  7.05481878E+00
  7.05577145E+00  7.08842894E+00  7.12149207E+00  7.14733305E+00  7.17944798E+00
  7.22227193E+00  7.22606514E+00  7.29635477E+00  7.32514568E+00  7.34499592E+00
  7.39988080E+00  7.42944058E+00  7.48458015E+00  7.60715011E+00  7.61600419E+00
  7.62484449E+00  7.66266641E+00  7.77822013E+00  7.88678665E+00  8.08758569E+00
  8.31053863E+00  8.39551428E+00  8.54073137E+00  1.33878683E+01  1.43779027E+01
  1.50082615E+01  1.61525813E+01
Alpha MO coefficients                      R   N=       42849
  9.07045195E-05 -6.35520748E-04 -7.20294189E-04 -4.30574042E-06 -2.24089409E-05
 -2.78874929E-05  0.00000000E+00 -2.08739598E-05  7.18959196E-05  0.00000000E+00
  1.02985315E-04  4.06689036E-05  0.00000000E+00  3.15858371E-05  0.00000000E+00
  0.00000000E+00 -4.85382546E-05  1.86198460E-05 -2.99517671E-06  0.00000000E+00
  0.00000000E+00 -1.36545114E-04  1.04761224E-04  4.76536532E-03 -2.79465557E-04
  2.27461477E-05  1.56008990E-03  1.81212433E-03  1.05972460E-04  7.61906138E-06
  0.00000000E+00 -6.16777414E-04 -3.06695027E-05  0.00000000E+00 -1.13330520E-03
  7.84051685E-04  0.00000000E+00 -4.08115589E-04  5.35937634E-05  0.00000000E+00
  2.84847351E-05  0.00000000E+00  0.00000000E+00 -5.41384881E-05  6.45638562E-06
 -3.77550315E-04  0.00000000E+00  0.00000000E+00  7.36535002E-04 -3.69040111E-05
 -4.46935156E-04  0.00000000E+00  0.00000000E+00  2.44394945E-04 -2.47230416E-05
  0.00000000E+00  7.96982371E-05  1.25506726E-05  0.00000000E+00  0.00000000E+00
 -1.09835648E-04 -3.62627088E-06  0.00000000E+00  2.56706047E-04 -2.65244522E-05
  0.00000000E+00  0.00000000E+00 -3.48096404E-04  4.75637130E-05  9.76910468E-01
 -9.21496256E-03  4.33179483E-02  2.03244217E-03 -9.15911349E-04  1.49313987E-03
 -1.35546377E-03  0.00000000E+00 -1.43396005E-03  1.38421796E-03  0.00000000E+00
  7.97839640E-05 -1.16034472E-03  0.00000000E+00 -1.25572999E-04 -2.20458663E-06
  0.00000000E+00  4.62022379E-05  0.00000000E+00  0.00000000E+00 -3.52151401E-05
  2.11898487E-05  7.46822103E-04  0.00000000E+00  0.00000000E+00 -2.30797539E-04
 -3.89474531E-04 -3.59936939E-04  0.00000000E+00  0.00000000E+00 -3.12187120E-04
 -3.73907640E-04  0.00000000E+00  4.74295220E-05 -4.88427869E-05  0.00000000E+00
  0.00000000E+00 -3.88598374E-05 -1.58199999E-05  0.00000000E+00  2.28862187E-05
  2.13967131E-05  0.00000000E+00  0.00000000E+00 -3.04568614E-04 -1.38945818E-04
  3.90914143E-05  4.58208966E-05 -2.64647857E-04 -7.05728428E-04 -1.45035771E-04
 -2.72428802E-05 -9.75590623E-05  0.00000000E+00  2.72852766E-04  7.10543182E-04
  0.00000000E+00 -8.39354170E-04 -4.81671207E-04  0.00000000E+00 -1.30115436E-04
 -2.86248407E-05  0.00000000E+00 -1.81085022E-05  0.00000000E+00  0.00000000E+00
 -2.96747430E-05  1.51975459E-05 -3.28670233E-04  0.00000000E+00  0.00000000E+00
 -8.29393360E-04  1.27980929E-04 -3.53126176E-05  0.00000000E+00  0.00000000E+00
  9.59576789E-05 -1.17929508E-04  0.00000000E+00 -2.09750468E-05 -1.20267617E-04
  0.00000000E+00  0.00000000E+00 -6.25744116E-05 -1.37492010E-04  0.00000000E+00
  4.23715631E-06 -1.51936417E-04  0.00000000E+00  0.00000000E+00  4.46242883E-05
 -4.20242965E-04 -2.60859601E-03  1.21628531E-04 -1.25068194E-04 -2.42880692E-04
  1.41028215E-04 -8.13973159E-06 -2.79244302E-05  0.00000000E+00  6.99386279E-05
  1.64668129E-04  0.00000000E+00  2.35666457E-04  2.02317965E-04  0.00000000E+00
  1.28644109E-04  2.64654748E-05  0.00000000E+00 -3.38175950E-06  0.00000000E+00
  0.00000000E+00 -1.79173539E-05  1.15455481E-06  5.26346229E-07  0.00000000E+00
  0.00000000E+00  8.10345680E-05  8.84752250E-05 -1.00657615E-04  0.00000000E+00
  0.00000000E+00  1.67177130E-04  1.62710180E-04  0.00000000E+00  1.57781392E-05
 -3.52690729E-06  0.00000000E+00  0.00000000E+00 -4.24666928E-06 -1.19430732E-05
  0.00000000E+00 -3.35469057E-05  4.53534204E-05  0.00000000E+00  0.00000000E+00
  8.39367693E-05  9.02040244E-05  3.95668023E-05 -9.66046488E-04 -4.69849194E-04
 -1.04274090E-05 -2.18231850E-05  1.47830076E-05  0.00000000E+00  2.77418435E-06
  2.74922977E-04  0.00000000E+00 -4.05646111E-05  1.31641786E-04  0.00000000E+00
  2.57405653E-05  0.00000000E+00  0.00000000E+00  1.29442274E-05  1.10281909E-05
 -2.62655548E-05  0.00000000E+00  0.00000000E+00  1.20477004E-05  3.31428241E-05
  1.16501593E-04  8.23510868E-05 -2.81933063E-05  7.28805948E-04  6.35921300E-04
  1.02528043E-05  2.49409847E-06  0.00000000E+00 -7.35285433E-05  1.37028950E-05
  0.00000000E+00  3.29653157E-04  8.87953661E-04  0.00000000E+00  4.32457975E-06
  7.96721191E-05  0.00000000E+00 -2.22561822E-06  0.00000000E+00  0.00000000E+00
  1.03678264E-07 -6.03549259E-06 -3.55278976E-05  0.00000000E+00  0.00000000E+00
 -2.04135745E-05  8.24471830E-05 -2.25874556E-05  0.00000000E+00  0.00000000E+00
 -2.65894909E-04 -1.62167709E-04  0.00000000E+00  9.20807802E-06  6.04445208E-06
  0.00000000E+00  0.00000000E+00  2.77741046E-06 -1.88147395E-05  0.00000000E+00
 -4.02221353E-05 -3.83001088E-05  0.00000000E+00  0.00000000E+00 -7.61170815E-05
  1.89568843E-05  2.64745300E-03  3.92249039E-05  9.25445072E-05 -6.90795426E-05
 -4.67277120E-04  7.26418679E-06  1.57121248E-05  0.00000000E+00 -6.17854339E-05
 -5.52331578E-05  0.00000000E+00  2.35858239E-04 -1.86893559E-04  0.00000000E+00
 -1.86913393E-04 -6.34832745E-05  0.00000000E+00 -8.71923496E-06  0.00000000E+00
  0.00000000E+00  2.23910003E-05  1.97624746E-05  4.35065577E-06  0.00000000E+00
  0.00000000E+00 -1.17248195E-04 -4.63571981E-05 -4.36346764E-06  0.00000000E+00
  0.00000000E+00 -2.21416914E-04 -2.05870260E-04  0.00000000E+00  3.22476634E-06
 -5.57609543E-07  0.00000000E+00  0.00000000E+00  1.71944711E-06 -1.35423515E-05
  0.00000000E+00 -4.63538271E-05  3.58189980E-06  0.00000000E+00  0.00000000E+00
 -7.61688303E-05  1.87873700E-04  2.58678856E-04  1.46508985E-03 -7.80864322E-05
 -1.53917546E-03  4.01324239E-04 -1.44534356E-04  1.32646307E-07  0.00000000E+00
 -2.08878655E-03 -4.03600840E-04  0.00000000E+00  1.03598873E-03  7.62540708E-04
  0.00000000E+00 -1.70005909E-04  5.74441046E-05  0.00000000E+00 -1.23345794E-04
  0.00000000E+00  0.00000000E+00  2.43084210E-04  9.40529152E-05 -4.42126555E-04
  0.00000000E+00  0.00000000E+00  8.98856574E-04 -6.62713939E-05  1.16829936E-05
  0.00000000E+00  0.00000000E+00 -3.38296965E-04 -1.23795257E-04  0.00000000E+00
 -1.35004987E-06  1.52766325E-05  0.00000000E+00  0.00000000E+00  1.88946921E-05
  1.34418297E-05  0.00000000E+00  1.64807787E-04 -7.16822851E-05  0.00000000E+00
  0.00000000E+00 -2.40805270E-04  4.15644365E-05  9.76649115E-01 -9.84825735E-03
  4.35680955E-02  4.50025649E-03 -4.46875098E-04  2.14804086E-03  4.80629993E-04
  0.00000000E+00 -2.38386631E-03 -6.03252441E-04  0.00000000E+00  1.13949280E-03
 -4.19480002E-06  0.00000000E+00  4.23900561E-06 -4.31576973E-05  0.00000000E+00
 -2.32322973E-04  0.00000000E+00  0.00000000E+00  1.02716163E-04  3.18326676E-05
  3.90496320E-04  0.00000000E+00  0.00000000E+00 -8.33981037E-04 -4.18958962E-04
 -1.53843026E-04  0.00000000E+00  0.00000000E+00  2.56406430E-04  1.66730220E-05
  0.00000000E+00  5.22717974E-05  1.76766519E-05  0.00000000E+00  0.00000000E+00
 -2.21058257E-05 -1.32741989E-05  0.00000000E+00  1.38208840E-04  9.31322197E-06
  0.00000000E+00  0.00000000E+00 -1.89676176E-04 -1.40635089E-04  4.49103064E-04
  2.30037010E-03  2.67524824E-04  2.16850313E-05 -4.17013342E-05 -2.77797580E-04
  0.00000000E+00  9.99420815E-05 -1.39445631E-03  0.00000000E+00  3.04366581E-04
 -3.81095777E-04  0.00000000E+00 -2.57899808E-05  0.00000000E+00  0.00000000E+00
  3.48082238E-05  2.01696600E-05 -1.66290337E-04  0.00000000E+00  0.00000000E+00
 -5.45763822E-04 -2.38961169E-05  9.76834823E-01 -9.19117885E-03  4.34392251E-02
 -2.49018344E-05 -1.26743565E-03 -1.56285739E-03  1.44186165E-03  0.00000000E+00
  1.56684683E-03 -1.35900114E-03  0.00000000E+00 -6.13004618E-04 -1.01129769E-03
  0.00000000E+00  6.25465260E-05 -4.91783192E-05  0.00000000E+00  3.52241768E-05
  0.00000000E+00  0.00000000E+00 -1.09560084E-04 -3.73295463E-06  7.75338316E-04
  0.00000000E+00  0.00000000E+00 -1.68004079E-04 -2.46044052E-04 -2.53399580E-04
  0.00000000E+00  0.00000000E+00  2.03043910E-04  1.22859226E-04  0.00000000E+00
 -6.34086925E-05  8.07338484E-06  0.00000000E+00  0.00000000E+00  2.21632204E-05
  1.91805715E-05  0.00000000E+00  1.06323081E-06  1.22866219E-04  0.00000000E+00
  0.00000000E+00  2.58831890E-04  9.18687256E-05 -4.85643633E-03 -2.06099223E-04