title                                                                   
SP        RMP2-FC                                                     Aug-CC-pVTZ         
Number of atoms                            I                5
Info1-9                                    I   N=           9
          33          24           0           0           0         110
           1           2           1
Full Title                                 C   N=           1
title       
Route                                      C   N=           4
#p SP mp2/aug-cc-pvtz density=current           
Charge                                     I                0
Multiplicity                               I                1
Number of electrons                        I               32
Number of alpha electrons                  I               16
Number of beta electrons                   I               16
Number of basis functions                  I              207
Number of independent functions            I              207
Number of point charges in /Mol/           I                0
Number of translation vectors              I                0
Atomic numbers                             I   N=           5
           1           8           8           7           8
Nuclear charges                            R   N=           5
  1.00000000E+00  8.00000000E+00  8.00000000E+00  7.00000000E+00  8.00000000E+00
Current cartesian coordinates              R   N=          15
  2.96784099E+00  3.17047056E+00 -7.05340217E-32  2.77676567E+00  1.34936878E+00
 -7.09372610E-33  1.82378244E-16  1.27155330E+00 -9.65290761E-33 -5.11463564E-01
 -1.43728646E+00  1.49593892E-32 -2.70021518E+00 -1.75960525E+00  5.33767493E-32
Number of symbols in /Mol/                 I                0
Force Field                                I                0
Atom Types                                 C   N=           5
                                                            
Int Atom Types                             I   N=           5
           0           0           0           0           0
MM charges                                 R   N=           5
  0.00000000E+00  0.00000000E+00  0.00000000E+00  0.00000000E+00  0.00000000E+00
Integer atomic weights                     I   N=           5
           1          16          16          14          16
Real atomic weights                        R   N=           5
  1.00782504E+00  1.59949146E+01  1.59949146E+01  1.40030740E+01  1.59949146E+01
Atom fragment info                         I   N=           5
           0           0           0           0           0
Atom residue num                           I   N=           5
           0           0           0           0           0
Nuclear spins                              I   N=           5
           1           0           0           2           0
Nuclear ZEff                               R   N=           5
 -1.00000000E+00 -5.60000000E+00 -5.60000000E+00 -4.55000000E+00 -5.60000000E+00
Nuclear ZNuc                               R   N=           5
  1.00000000E+00  8.00000000E+00  8.00000000E+00  7.00000000E+00  8.00000000E+00
Nuclear QMom                               R   N=           5
  0.00000000E+00  0.00000000E+00  0.00000000E+00  2.04400000E+00  0.00000000E+00
Nuclear GFac                               R   N=           5
  2.79284600E+00  0.00000000E+00  0.00000000E+00  4.03761000E-01  0.00000000E+00
MicOpt                                     I   N=           5
          -1          -1          -1          -1          -1
Number of residues                         I                0
Number of secondary structures             I                0
SymInf integers                            I   N=          26
           1           2           1           1           1           1
           1          -1           0           0           0           0
           0           0           0           0           0           0
           0           0           0           0           0           0
           0           0
RotTr to input orientation                 R   N=          12
 -9.94540625E-01 -9.91214056E-17 -1.04350107E-01  1.04350107E-01 -7.19204058E-17
 -9.94540625E-01  9.10753627E-17 -1.00000000E+00  8.18710946E-17  2.62079949E+00
  0.00000000E+00  3.46285629E+00
Number of contracted shells                I               65
Number of primitive shells                 I              119
Pure/Cartesian d shells                    I                0
Pure/Cartesian f shells                    I                0
Highest angular momentum                   I                3
Largest degree of contraction              I                7
Shell types                                I   N=          65
           0           0           0           0           1           1
           1          -2          -2           0           0           0
           0           0           1           1           1           1
          -2          -2          -2          -3          -3           0
           0           0           0           0           1           1
           1           1          -2          -2          -2          -3
          -3           0           0           0           0           0
           1           1           1           1          -2          -2
          -2          -3          -3           0           0           0
           0           0           1           1           1           1
          -2          -2          -2          -3          -3
Number of primitives per shell             I   N=          65
           3           1           1           1           1           1
           1           1           1           7           6           1
           1           1           3           1           1           1
           1           1           1           1           1           7
           6           1           1           1           3           1
           1           1           1           1           1           1
           1           7           6           1           1           1
           3           1           1           1           1           1
           1           1           1           7           6           1
           1           1           3           1           1           1
           1           1           1           1           1
Shell to atom map                          I   N=          65
           1           1           1           1           1           1
           1           1           1           2           2           2
           2           2           2           2           2           2
           2           2           2           2           2           3
           3           3           3           3           3           3
           3           3           3           3           3           3
           3           4           4           4           4           4
           4           4           4           4           4           4
           4           4           4           5           5           5
           5           5           5           5           5           5
           5           5           5           5           5
Primitive exponents                        R   N=         119
  3.38700000E+01  5.09500000E+00  1.15900000E+00  3.25800000E-01  1.02700000E-01
  2.52600000E-02  1.40700000E+00  3.88000000E-01  1.02000000E-01  1.05700000E+00
  2.47000000E-01  1.53300000E+04  2.29900000E+03  5.22400000E+02  1.47300000E+02
  4.75500000E+01  1.67600000E+01  6.20700000E+00  5.22400000E+02  1.47300000E+02
  4.75500000E+01  1.67600000E+01  6.20700000E+00  6.88200000E-01  1.75200000E+00
  2.38400000E-01  7.37600000E-02  3.44600000E+01  7.74900000E+00  2.28000000E+00
  7.15600000E-01  2.14000000E-01  5.97400000E-02  2.31400000E+00  6.45000000E-01
  2.14000000E-01  1.42800000E+00  5.00000000E-01  1.53300000E+04  2.29900000E+03
  5.22400000E+02  1.47300000E+02  4.75500000E+01  1.67600000E+01  6.20700000E+00
  5.22400000E+02  1.47300000E+02  4.75500000E+01  1.67600000E+01  6.20700000E+00
  6.88200000E-01  1.75200000E+00  2.38400000E-01  7.37600000E-02  3.44600000E+01
  7.74900000E+00  2.28000000E+00  7.15600000E-01  2.14000000E-01  5.97400000E-02
  2.31400000E+00  6.45000000E-01  2.14000000E-01  1.42800000E+00  5.00000000E-01
  1.14200000E+04  1.71200000E+03  3.89300000E+02  1.10000000E+02  3.55700000E+01
  1.25400000E+01  4.64400000E+00  3.89300000E+02  1.10000000E+02  3.55700000E+01
  1.25400000E+01  4.64400000E+00  5.11800000E-01  1.29300000E+00  1.78700000E-01
  5.76000000E-02  2.66300000E+01  5.94800000E+00  1.74200000E+00  5.55000000E-01
  1.72500000E-01  4.91000000E-02  1.65400000E+00  4.69000000E-01  1.51000000E-01
  1.09300000E+00  3.64000000E-01  1.53300000E+04  2.29900000E+03  5.22400000E+02
  1.47300000E+02  4.75500000E+01  1.67600000E+01  6.20700000E+00  5.22400000E+02
  1.47300000E+02  4.75500000E+01  1.67600000E+01  6.20700000E+00  6.88200000E-01
  1.75200000E+00  2.38400000E-01  7.37600000E-02  3.44600000E+01  7.74900000E+00
  2.28000000E+00  7.15600000E-01  2.14000000E-01  5.97400000E-02  2.31400000E+00
  6.45000000E-01  2.14000000E-01  1.42800000E+00  5.00000000E-01
Contraction coefficients                   R   N=         119
  2.54948632E-02  1.90362766E-01  8.52162022E-01  1.00000000E+00  1.00000000E+00
  1.00000000E+00  1.00000000E+00  1.00000000E+00  1.00000000E+00  1.00000000E+00
  1.00000000E+00  5.19808943E-04  4.02025621E-03  2.07128267E-02  8.10105536E-02
  2.35962985E-01  4.42653446E-01  3.57064423E-01 -4.42115008E-05 -1.22591041E-03
 -1.05517725E-02 -6.74452633E-02 -1.71198607E-01  1.07329856E+00  1.00000000E+00
  1.00000000E+00  1.00000000E+00  4.11634896E-02  2.57762836E-01  8.02419274E-01
  1.00000000E+00  1.00000000E+00  1.00000000E+00  1.00000000E+00  1.00000000E+00
  1.00000000E+00  1.00000000E+00  1.00000000E+00  5.19808943E-04  4.02025621E-03
  2.07128267E-02  8.10105536E-02  2.35962985E-01  4.42653446E-01  3.57064423E-01
 -4.42115008E-05 -1.22591041E-03 -1.05517725E-02 -6.74452633E-02 -1.71198607E-01
  1.07329856E+00  1.00000000E+00  1.00000000E+00  1.00000000E+00  4.11634896E-02
  2.57762836E-01  8.02419274E-01  1.00000000E+00  1.00000000E+00  1.00000000E+00
  1.00000000E+00  1.00000000E+00  1.00000000E+00  1.00000000E+00  1.00000000E+00
  5.34563860E-04  4.13435660E-03  2.12335358E-02  8.25006224E-02  2.38138871E-01
  4.42551547E-01  3.53757422E-01 -4.89867350E-05 -1.19527323E-03 -1.03490714E-02
 -6.48680190E-02 -1.71552477E-01  1.07289568E+00  1.00000000E+00  1.00000000E+00
  1.00000000E+00  3.98072123E-02  2.49002660E-01  8.10479727E-01  1.00000000E+00
  1.00000000E+00  1.00000000E+00  1.00000000E+00  1.00000000E+00  1.00000000E+00
  1.00000000E+00  1.00000000E+00  5.19808943E-04  4.02025621E-03  2.07128267E-02
  8.10105536E-02  2.35962985E-01  4.42653446E-01  3.57064423E-01 -4.42115008E-05
 -1.22591041E-03 -1.05517725E-02 -6.74452633E-02 -1.71198607E-01  1.07329856E+00
  1.00000000E+00  1.00000000E+00  1.00000000E+00  4.11634896E-02  2.57762836E-01
  8.02419274E-01  1.00000000E+00  1.00000000E+00  1.00000000E+00  1.00000000E+00
  1.00000000E+00  1.00000000E+00  1.00000000E+00  1.00000000E+00
Coordinates of each shell                  R   N=         195
  2.96784099E+00  3.17047056E+00 -5.66741630E-32  2.96784099E+00  3.17047056E+00
 -5.66741630E-32  2.96784099E+00  3.17047056E+00 -5.66741630E-32  2.96784099E+00
  3.17047056E+00 -5.66741630E-32  2.96784099E+00  3.17047056E+00 -5.66741630E-32
  2.96784099E+00  3.17047056E+00 -5.66741630E-32  2.96784099E+00  3.17047056E+00
 -5.66741630E-32  2.96784099E+00  3.17047056E+00 -5.66741630E-32  2.96784099E+00
  3.17047056E+00 -5.66741630E-32  2.77676567E+00  1.34936878E+00 -5.30797762E-32
  2.77676567E+00  1.34936878E+00 -5.30797762E-32  2.77676567E+00  1.34936878E+00
 -5.30797762E-32  2.77676567E+00  1.34936878E+00 -5.30797762E-32  2.77676567E+00
  1.34936878E+00 -5.30797762E-32  2.77676567E+00  1.34936878E+00 -5.30797762E-32
  2.77676567E+00  1.34936878E+00 -5.30797762E-32  2.77676567E+00  1.34936878E+00
 -5.30797762E-32  2.77676567E+00  1.34936878E+00 -5.30797762E-32  2.77676567E+00
  1.34936878E+00 -5.30797762E-32  2.77676567E+00  1.34936878E+00 -5.30797762E-32
  2.77676567E+00  1.34936878E+00 -5.30797762E-32  2.77676567E+00  1.34936878E+00
 -5.30797762E-32  2.77676567E+00  1.34936878E+00 -5.30797762E-32  2.62995537E-18
  1.27155330E+00  4.27826757E-35  2.62995537E-18  1.27155330E+00  4.27826757E-35
  2.62995537E-18  1.27155330E+00  4.27826757E-35  2.62995537E-18  1.27155330E+00
  4.27826757E-35  2.62995537E-18  1.27155330E+00  4.27826757E-35  2.62995537E-18
  1.27155330E+00  4.27826757E-35  2.62995537E-18  1.27155330E+00  4.27826757E-35
  2.62995537E-18  1.27155330E+00  4.27826757E-35  2.62995537E-18  1.27155330E+00
  4.27826757E-35  2.62995537E-18  1.27155330E+00  4.27826757E-35  2.62995537E-18
  1.27155330E+00  4.27826757E-35  2.62995537E-18  1.27155330E+00  4.27826757E-35
  2.62995537E-18  1.27155330E+00  4.27826757E-35  2.62995537E-18  1.27155330E+00
  4.27826757E-35 -5.11463564E-01 -1.43728646E+00  9.73697969E-33 -5.11463564E-01
 -1.43728646E+00  9.73697969E-33 -5.11463564E-01 -1.43728646E+00  9.73697969E-33
 -5.11463564E-01 -1.43728646E+00  9.73697969E-33 -5.11463564E-01 -1.43728646E+00
  9.73697969E-33 -5.11463564E-01 -1.43728646E+00  9.73697969E-33 -5.11463564E-01
 -1.43728646E+00  9.73697969E-33 -5.11463564E-01 -1.43728646E+00  9.73697969E-33
 -5.11463564E-01 -1.43728646E+00  9.73697969E-33 -5.11463564E-01 -1.43728646E+00
  9.73697969E-33 -5.11463564E-01 -1.43728646E+00  9.73697969E-33 -5.11463564E-01
 -1.43728646E+00  9.73697969E-33 -5.11463564E-01 -1.43728646E+00  9.73697969E-33
 -5.11463564E-01 -1.43728646E+00  9.73697969E-33 -2.70021518E+00 -1.75960525E+00
  5.16014066E-32 -2.70021518E+00 -1.75960525E+00  5.16014066E-32 -2.70021518E+00
 -1.75960525E+00  5.16014066E-32 -2.70021518E+00 -1.75960525E+00  5.16014066E-32
 -2.70021518E+00 -1.75960525E+00  5.16014066E-32 -2.70021518E+00 -1.75960525E+00
  5.16014066E-32 -2.70021518E+00 -1.75960525E+00  5.16014066E-32 -2.70021518E+00
 -1.75960525E+00  5.16014066E-32 -2.70021518E+00 -1.75960525E+00  5.16014066E-32
 -2.70021518E+00 -1.75960525E+00  5.16014066E-32 -2.70021518E+00 -1.75960525E+00
  5.16014066E-32 -2.70021518E+00 -1.75960525E+00  5.16014066E-32 -2.70021518E+00
 -1.75960525E+00  5.16014066E-32 -2.70021518E+00 -1.75960525E+00  5.16014066E-32
Num ILSW                                   I              100
ILSW                                       I   N=         100
           0           0           0           0           2           0
           0           0           0           0           0          -1
           5           0           0           0           0           0
           0           0           0           0           0           0
           1           0           0           0           0           0
           0           0      100000           0          -1           0
           0           0           0           0           0           0
           0           0           0           1           0           0
           0 -2000000000           1           0           0           0
           0           0           4          52           0           0
           0           0           0           0           0           0
           0           0           0           5           0           1
           0           0           0           0           0           0
           0           0           0           0           0           0
           0           0           0           0           0           0
           0           0           0           0           0           0
           0           0           0           0
Num RLSW                                   I               52
RLSW                                       R   N=          52
  1.00000000E+00  1.00000000E+00  1.00000000E+00  1.00000000E+00  1.00000000E+00
  0.00000000E+00  0.00000000E+00  1.00000000E+00  0.00000000E+00  0.00000000E+00
  0.00000000E+00  0.00000000E+00  1.00000000E+00  0.00000000E+00  0.00000000E+00
  0.00000000E+00  0.00000000E+00  1.00000000E+00  0.00000000E+00  0.00000000E+00
  0.00000000E+00  0.00000000E+00  1.00000000E+00  0.00000000E+00  0.00000000E+00
  0.00000000E+00  0.00000000E+00  1.00000000E+00  0.00000000E+00  0.00000000E+00
  0.00000000E+00  0.00000000E+00  1.00000000E+00  0.00000000E+00  0.00000000E+00
  0.00000000E+00  0.00000000E+00  0.00000000E+00  1.00000000E+00  1.00000000E+00
  0.00000000E+00  1.00000000E+00  0.00000000E+00  0.00000000E+00  0.00000000E+00
  0.00000000E+00  0.00000000E+00  0.00000000E+00  0.00000000E+00  0.00000000E+00
  0.00000000E+00  0.00000000E+00
MxBond                                     I                2
NBond                                      I   N=           5
           1           2           2           2           1
IBond                                      I   N=          10
           2           0           1           3           2           4
           3           5           4           0
RBond                                      R   N=          10
  1.00000000E+00  0.00000000E+00  1.00000000E+00  1.00000000E+00  1.00000000E+00
  1.00000000E+00  1.00000000E+00  2.00000000E+00  2.00000000E+00  0.00000000E+00
Virial Ratio                               R      2.002439520401786E+00
SCF Energy                                 R     -2.795003299319820E+02
MP2 Energy                                 R     -2.804466171075940E+02
Total Energy                               R     -2.804466171075940E+02
Post-SCF wavefunction norm                 R      1.120840839758012E+00
RMS Density                                R      3.941622314989555E-09
Job Status                                 I                1
Nuclear derivative order                   I                0
External E-field                           R   N=          35
  0.00000000E+00  0.00000000E+00  0.00000000E+00  0.00000000E+00  0.00000000E+00
  0.00000000E+00  0.00000000E+00  0.00000000E+00  0.00000000E+00  0.00000000E+00
  0.00000000E+00  0.00000000E+00  0.00000000E+00  0.00000000E+00  0.00000000E+00
  0.00000000E+00  0.00000000E+00  0.00000000E+00  0.00000000E+00  0.00000000E+00
  0.00000000E+00  0.00000000E+00  0.00000000E+00  0.00000000E+00  0.00000000E+00
  0.00000000E+00  0.00000000E+00  0.00000000E+00  0.00000000E+00  0.00000000E+00
  0.00000000E+00  0.00000000E+00  0.00000000E+00  0.00000000E+00  0.00000000E+00
IOpCl                                      I                0
IROHF                                      I                0
Alpha Orbital Energies                     R   N=         207
 -2.06917260E+01 -2.06845545E+01 -2.06612731E+01 -1.58131274E+01 -1.62361873E+00
 -1.48985411E+00 -1.25707471E+00 -9.47862229E-01 -7.71237003E-01 -7.57993651E-01
 -7.10484978E-01 -6.79373958E-01 -6.19023729E-01 -5.87309358E-01 -4.87885403E-01
 -4.72831761E-01  2.95975609E-02  7.16547711E-02  8.55509015E-02  1.01646239E-01
  1.33163698E-01  1.33970801E-01  1.44000533E-01  1.54465319E-01  1.78289175E-01
  1.94313178E-01  1.99868756E-01  2.06184570E-01  2.17911145E-01  2.30184792E-01
  2.37257027E-01  2.65945745E-01  2.93314216E-01  3.03756563E-01  3.10113167E-01
  3.42576031E-01  3.49160301E-01  3.87011009E-01  4.21281256E-01  4.31397202E-01
  5.27092440E-01  5.28947293E-01  5.58251477E-01  5.81223710E-01  6.25666917E-01
  6.38397750E-01  6.74547664E-01  6.84628412E-01  7.05162610E-01  7.11577627E-01
  7.23304613E-01  7.29770133E-01  7.44802251E-01  7.90495940E-01  7.91881588E-01
  8.10324379E-01  8.12449786E-01  8.29557602E-01  8.68076916E-01  9.06775759E-01
  9.21688471E-01  9.25048210E-01  9.57195355E-01  9.76743690E-01  9.83648605E-01
  1.01640886E+00  1.05092754E+00  1.05515614E+00  1.08095881E+00  1.11603332E+00
  1.13896297E+00  1.18845547E+00  1.22076350E+00  1.23157013E+00  1.33842419E+00
  1.34952527E+00  1.38606606E+00  1.45299899E+00  1.48804433E+00  1.50999481E+00
  1.53714020E+00  1.56573582E+00  1.57878484E+00  1.61233194E+00  1.66147685E+00
  1.66889145E+00  1.70304523E+00  1.79124791E+00  1.83024123E+00  1.83439214E+00
  1.87680126E+00  1.90883421E+00  1.95596331E+00  1.99032747E+00  2.00728346E+00
  2.07685177E+00  2.11755966E+00  2.13178295E+00  2.14696161E+00  2.22372715E+00
  2.26133167E+00  2.26365403E+00  2.28866015E+00  2.31270028E+00  2.33978304E+00
  2.38783971E+00  2.42196842E+00  2.42643254E+00  2.45305298E+00  2.46305207E+00
  2.47492983E+00  2.49975961E+00  2.58754232E+00  2.59453513E+00  2.61600922E+00
  2.62243272E+00  2.63038693E+00  2.66301122E+00  2.75655733E+00  2.82377264E+00
  2.85148089E+00  2.87682562E+00  2.88646652E+00  2.91923566E+00  2.95438146E+00
  3.01482594E+00  3.06832451E+00  3.12475843E+00  3.18623318E+00  3.22219640E+00
  3.31116102E+00  3.34700376E+00  3.51179248E+00  3.64096964E+00  3.83825582E+00
  3.84085807E+00  4.14602830E+00  4.15814023E+00  4.18142549E+00  4.25577276E+00
  4.34809053E+00  4.38982006E+00  4.44930244E+00  4.52149932E+00  4.65959618E+00
  4.70267722E+00  4.80354681E+00  4.82378912E+00  4.83053754E+00  4.89447510E+00
  5.02207891E+00  5.07693656E+00  5.10026280E+00  5.14472865E+00  5.17848961E+00
  5.24047948E+00  5.27203338E+00  5.30777579E+00  5.32753421E+00  5.35154707E+00
  5.59766414E+00  5.67339210E+00  5.76520415E+00  5.80236045E+00  5.95219611E+00
  6.16545328E+00  6.33236467E+00  6.33597327E+00  6.39790984E+00  6.49484160E+00
  6.50559873E+00  6.61709823E+00  6.67776126E+00  6.70133087E+00  6.75689922E+00
  6.75875428E+00  6.83211509E+00  6.89694352E+00  7.00143327E+00  7.03533001E+00
  7.04503078E+00  7.07950541E+00  7.12258193E+00  7.14000233E+00  7.17689034E+00
  7.22114112E+00  7.23792480E+00  7.30452002E+00  7.32462478E+00  7.34746659E+00
  7.39574400E+00  7.41313094E+00  7.48302747E+00  7.59682969E+00  7.61255312E+00
  7.61955241E+00  7.66026435E+00  7.77430644E+00  7.88323182E+00  8.06805649E+00
  8.29478580E+00  8.39270833E+00  8.54476137E+00  1.33472042E+01  1.43752455E+01
  1.51457498E+01  1.61505294E+01
Alpha MO coefficients                      R   N=       42849
  9.60649320E-05 -6.53609399E-04 -7.56685078E-04 -7.97354058E-06 -2.54705945E-05
 -2.78755091E-05  0.00000000E+00 -4.80391296E-05  8.04956768E-05  0.00000000E+00
  9.04696149E-05  4.89930147E-05  0.00000000E+00  3.48976951E-05  0.00000000E+00
  0.00000000E+00 -4.72961067E-05  2.28741790E-05 -7.89112342E-07  0.00000000E+00
  0.00000000E+00 -1.33223863E-04  1.18087150E-04  4.46112040E-03 -2.98649233E-04
  2.55073250E-05  1.44068791E-03  1.74773400E-03  9.91965431E-05  6.53716288E-06
  0.00000000E+00 -5.47604583E-04 -2.62245513E-05  0.00000000E+00 -9.93547263E-04
  8.07692806E-04  0.00000000E+00 -3.83586961E-04  7.07271978E-05  0.00000000E+00
  3.24090371E-05  0.00000000E+00  0.00000000E+00 -6.09294877E-05  6.27967536E-06
 -3.60745836E-04  0.00000000E+00  0.00000000E+00  7.06174516E-04 -4.01710330E-05
 -4.33999189E-04  0.00000000E+00  0.00000000E+00  2.29520477E-04 -1.90306938E-05
  0.00000000E+00  7.56403384E-05  1.22462132E-05  0.00000000E+00  0.00000000E+00
 -1.03548801E-04 -1.33693008E-06  0.00000000E+00  2.54134534E-04 -3.00322992E-05
  0.00000000E+00  0.00000000E+00 -3.56827167E-04  6.38692072E-05  9.76923032E-01
 -9.21297140E-03  4.32929233E-02  2.19403383E-03 -8.34788756E-04  1.45108492E-03
 -1.36818313E-03  0.00000000E+00 -1.37352917E-03  1.40022100E-03  0.00000000E+00
  1.59609661E-04 -1.15723628E-03  0.00000000E+00 -1.16049050E-04 -1.03794613E-05
  0.00000000E+00  4.98403184E-05  0.00000000E+00  0.00000000E+00 -4.14606833E-05
  2.12913043E-05  7.29433358E-04  0.00000000E+00  0.00000000E+00 -2.04725647E-04
 -3.81987486E-04 -3.72204740E-04  0.00000000E+00  0.00000000E+00 -2.94139238E-04
 -3.63765520E-04  0.00000000E+00  4.46172413E-05 -5.00498825E-05  0.00000000E+00
  0.00000000E+00 -3.64980671E-05 -1.43691474E-05  0.00000000E+00  1.49644456E-05
  2.30778640E-05  0.00000000E+00  0.00000000E+00 -2.93210683E-04 -1.36652001E-04
  3.91066505E-05  4.53859343E-05 -2.66004712E-04 -6.86518043E-04 -1.20679068E-04
 -2.82451982E-05 -9.74638264E-05  0.00000000E+00  2.76199230E-04  7.06158376E-04
  0.00000000E+00 -8.42321131E-04 -4.86338292E-04  0.00000000E+00 -1.26103756E-04
 -2.51332333E-05  0.00000000E+00 -1.83411527E-05  0.00000000E+00  0.00000000E+00
 -2.94021760E-05  1.46065081E-05 -3.30077203E-04  0.00000000E+00  0.00000000E+00
 -8.26494175E-04  1.50771062E-04 -3.98758904E-05  0.00000000E+00  0.00000000E+00
  1.01300367E-04 -1.06416533E-04  0.00000000E+00 -2.16581384E-05 -1.20332692E-04
  0.00000000E+00  0.00000000E+00 -6.64856481E-05 -1.37498984E-04  0.00000000E+00
  1.75515527E-06 -1.51920235E-04  0.00000000E+00  0.00000000E+00  3.18488987E-05
 -4.23000611E-04 -2.35217562E-03  1.17949560E-04 -1.13917852E-04 -2.61358628E-04
  1.20355126E-04 -7.57743180E-06 -2.82078686E-05  0.00000000E+00  6.74712376E-05
  1.66517244E-04  0.00000000E+00  2.29462145E-04  2.10258451E-04  0.00000000E+00
  1.22684637E-04  2.40621306E-05  0.00000000E+00 -3.27475313E-06  0.00000000E+00
  0.00000000E+00 -1.78096161E-05  1.14334939E-06  2.45990011E-07  0.00000000E+00
  0.00000000E+00  7.92105444E-05  9.03206909E-05 -1.00683791E-04  0.00000000E+00
  0.00000000E+00  1.67516162E-04  1.63767819E-04  0.00000000E+00  1.58174516E-05
 -3.87716338E-06  0.00000000E+00  0.00000000E+00 -4.98800047E-06 -1.15103490E-05
  0.00000000E+00 -3.35222401E-05  4.58030363E-05  0.00000000E+00  0.00000000E+00
  8.44769657E-05  8.92692944E-05  3.79783873E-05 -9.76949347E-04 -4.84071416E-04
 -1.00934643E-05 -2.19056075E-05  1.67332937E-05  0.00000000E+00  2.41340819E-06
  2.73528278E-04  0.00000000E+00 -4.04563922E-05  1.33445450E-04  0.00000000E+00
  2.56331936E-05  0.00000000E+00  0.00000000E+00  1.36126862E-05  1.07066715E-05
 -2.61203091E-05  0.00000000E+00  0.00000000E+00  1.14111427E-05  3.32640507E-05
  1.12753957E-04  8.03784779E-05 -2.76751301E-05  7.53197268E-04  6.56107031E-04
  1.02593281E-05  2.08441582E-06  0.00000000E+00 -7.04524322E-05  2.09549174E-05
  0.00000000E+00  3.26942412E-04  8.70243993E-04  0.00000000E+00  1.16698243E-06
  7.82967665E-05  0.00000000E+00 -1.97544149E-06  0.00000000E+00  0.00000000E+00
 -3.71358381E-07 -6.65860785E-06 -3.66769450E-05  0.00000000E+00  0.00000000E+00
 -2.04980968E-05  8.43656234E-05 -2.40019903E-05  0.00000000E+00  0.00000000E+00
 -2.67007999E-04 -1.47302246E-04  0.00000000E+00  9.33832750E-06  5.60020571E-06
  0.00000000E+00  0.00000000E+00  2.06709553E-06 -1.87212728E-05  0.00000000E+00
 -4.02660185E-05 -3.62891280E-05  0.00000000E+00  0.00000000E+00 -7.28480857E-05
  1.90430828E-05  2.39118626E-03  4.30587283E-05  8.06291159E-05 -7.47006269E-05
 -4.66198627E-04  6.34616400E-06  1.60530577E-05  0.00000000E+00 -5.89789794E-05
 -5.50295657E-05  0.00000000E+00  2.29414645E-04 -1.74295014E-04  0.00000000E+00
 -1.89548427E-04 -6.22673181E-05  0.00000000E+00 -8.78270814E-06  0.00000000E+00
  0.00000000E+00  2.23665128E-05  1.94974272E-05  3.90104944E-06  0.00000000E+00
  0.00000000E+00 -1.15687315E-04 -4.44994707E-05 -3.78009008E-06  0.00000000E+00
  0.00000000E+00 -2.22560187E-04 -1.93549755E-04  0.00000000E+00  2.75968512E-06
 -6.16382616E-07  0.00000000E+00  0.00000000E+00  1.38568713E-06 -1.35622112E-05
  0.00000000E+00 -4.52183648E-05  4.03109432E-06  0.00000000E+00  0.00000000E+00
 -7.03639449E-05  1.88704996E-04  2.58809557E-04  1.46556906E-03 -7.84609787E-05
 -1.54087926E-03  3.91456034E-04 -1.44824271E-04  9.78780440E-07  0.00000000E+00
 -2.08729752E-03 -3.89075816E-04  0.00000000E+00  1.03227463E-03  7.45917877E-04
  0.00000000E+00 -1.72308420E-04  5.46699388E-05  0.00000000E+00 -1.23414645E-04
  0.00000000E+00  0.00000000E+00  2.44151577E-04  9.09433752E-05 -4.41704855E-04
  0.00000000E+00  0.00000000E+00  8.97839726E-04 -7.57574298E-05  1.27247021E-05
  0.00000000E+00  0.00000000E+00 -3.37877277E-04 -1.19449295E-04  0.00000000E+00
 -1.59135425E-06  1.51342696E-05  0.00000000E+00  0.00000000E+00  1.90962822E-05
  1.35095271E-05  0.00000000E+00  1.65977590E-04 -7.13323208E-05  0.00000000E+00
  0.00000000E+00 -2.40545339E-04  4.34104850E-05  9.76650058E-01 -9.84881997E-03
  4.35671002E-02  4.49496868E-03 -4.46636286E-04  2.15085397E-03  4.68294401E-04
  0.00000000E+00 -2.38733217E-03 -5.87765021E-04  0.00000000E+00  1.14028831E-03
 -8.60116633E-06  0.00000000E+00  5.05027254E-06 -4.22818447E-05  0.00000000E+00
 -2.32240218E-04  0.00000000E+00  0.00000000E+00  1.03218947E-04  3.03281906E-05
  3.90347785E-04  0.00000000E+00  0.00000000E+00 -8.38367206E-04 -4.07804454E-04
 -1.54650192E-04  0.00000000E+00  0.00000000E+00  2.57991454E-04  1.51759430E-05
  0.00000000E+00  5.23233845E-05  1.73271049E-05  0.00000000E+00  0.00000000E+00
 -2.23796043E-05 -1.29276068E-05  0.00000000E+00  1.38074479E-04  8.44503563E-06
  0.00000000E+00  0.00000000E+00 -1.91717459E-04 -1.36591462E-04  4.77730364E-04
  2.09603615E-03  1.42486963E-04  1.63330493E-05 -4.38898229E-05 -2.51639744E-04
  0.00000000E+00  9.78419142E-05 -1.29080080E-03  0.00000000E+00  2.96451596E-04
 -3.47774817E-04  0.00000000E+00 -3.18536667E-06  0.00000000E+00  0.00000000E+00
  7.19111985E-05  1.55883505E-05 -1.61525857E-04  0.00000000E+00  0.00000000E+00
 -5.38398378E-04 -1.16455238E-05  9.76841095E-01 -9.16501222E-03  4.34242793E-02
  2.86850156E-04 -1.06427765E-03 -1.51916759E-03  1.45958445E-03  0.00000000E+00
  1.51357937E-03 -1.31226850E-03  0.00000000E+00 -6.79655409E-04 -8.75629547E-04
  0.00000000E+00  4.29286169E-05 -2.50352189E-05  0.00000000E+00  3.34945897E-05
  0.00000000E+00  0.00000000E+00 -1.24730216E-04 -8.19737168E-07  7.42165972E-04
  0.00000000E+00  0.00000000E+00 -1.68411931E-04 -2.32960482E-04 -2.79401171E-04
  0.00000000E+00  0.00000000E+00  2.06367918E-04  1.25323065E-04  0.00000000E+00
 -6.17127663E-05  3.09659775E-06  0.00000000E+00  0.00000000E+00  1.63910611E-05
  1.09646267E-05  0.00000000E+00  1.00397547E-05  1.21891985E-04  0.00000000E+00
  0.00000000E+00  2.45413894E-04  8.93400625E-05 -4.55862862E-03 -2.30570522E-04