title                                                                   
SP        RMP2-FC                                                     Aug-CC-pVTZ         
Number of atoms                            I                5
Info1-9                                    I   N=           9
          33          24           0           0           0         110
           1           2           1
Full Title                                 C   N=           1
title       
Route                                      C   N=           4
#p SP mp2/aug-cc-pvtz density=current           
Charge                                     I                0
Multiplicity                               I                1
Number of electrons                        I               32
Number of alpha electrons                  I               16
Number of beta electrons                   I               16
Number of basis functions                  I              207
Number of independent functions            I              207
Number of point charges in /Mol/           I                0
Number of translation vectors              I                0
Atomic numbers                             I   N=           5
           1           8           8           7           8
Nuclear charges                            R   N=           5
  1.00000000E+00  8.00000000E+00  8.00000000E+00  7.00000000E+00  8.00000000E+00
Current cartesian coordinates              R   N=          15
  2.86752359E+00  3.25479266E+00  2.15179476E-31  2.74362156E+00  1.42789098E+00
  1.56494716E-31 -2.36261152E-17  1.24974563E+00  3.45179316E-32 -4.88590781E-01
 -1.46331296E+00 -1.06001140E-31 -2.67454507E+00 -1.80408685E+00 -6.41632270E-32
Number of symbols in /Mol/                 I                0
Force Field                                I                0
Atom Types                                 C   N=           5
                                                            
Int Atom Types                             I   N=           5
           0           0           0           0           0
MM charges                                 R   N=           5
  0.00000000E+00  0.00000000E+00  0.00000000E+00  0.00000000E+00  0.00000000E+00
Integer atomic weights                     I   N=           5
           1          16          16          14          16
Real atomic weights                        R   N=           5
  1.00782504E+00  1.59949146E+01  1.59949146E+01  1.40030740E+01  1.59949146E+01
Atom fragment info                         I   N=           5
           0           0           0           0           0
Atom residue num                           I   N=           5
           0           0           0           0           0
Nuclear spins                              I   N=           5
           1           0           0           2           0
Nuclear ZEff                               R   N=           5
 -1.00000000E+00 -5.60000000E+00 -5.60000000E+00 -4.55000000E+00 -5.60000000E+00
Nuclear ZNuc                               R   N=           5
  1.00000000E+00  8.00000000E+00  8.00000000E+00  7.00000000E+00  8.00000000E+00
Nuclear QMom                               R   N=           5
  0.00000000E+00  0.00000000E+00  0.00000000E+00  2.04400000E+00  0.00000000E+00
Nuclear GFac                               R   N=           5
  2.79284600E+00  0.00000000E+00  0.00000000E+00  4.03761000E-01  0.00000000E+00
MicOpt                                     I   N=           5
          -1          -1          -1          -1          -1
Number of residues                         I                0
Number of secondary structures             I                0
SymInf integers                            I   N=          26
           1           2           1           1           1           1
           1          -1           0           0           0           0
           0           0           0           0           0           0
           0           0           0           0           0           0
           0           0
RotTr to input orientation                 R   N=          12
 -9.97708069E-01 -9.75162028E-17 -6.76654135E-02  6.76654135E-02 -7.40823057E-17
 -9.97708069E-01  9.22798926E-17 -1.00000000E+00  8.05109884E-17  2.64071453E+00
  0.00000000E+00  3.44136507E+00
Number of contracted shells                I               65
Number of primitive shells                 I              119
Pure/Cartesian d shells                    I                0
Pure/Cartesian f shells                    I                0
Highest angular momentum                   I                3
Largest degree of contraction              I                7
Shell types                                I   N=          65
           0           0           0           0           1           1
           1          -2          -2           0           0           0
           0           0           1           1           1           1
          -2          -2          -2          -3          -3           0
           0           0           0           0           1           1
           1           1          -2          -2          -2          -3
          -3           0           0           0           0           0
           1           1           1           1          -2          -2
          -2          -3          -3           0           0           0
           0           0           1           1           1           1
          -2          -2          -2          -3          -3
Number of primitives per shell             I   N=          65
           3           1           1           1           1           1
           1           1           1           7           6           1
           1           1           3           1           1           1
           1           1           1           1           1           7
           6           1           1           1           3           1
           1           1           1           1           1           1
           1           7           6           1           1           1
           3           1           1           1           1           1
           1           1           1           7           6           1
           1           1           3           1           1           1
           1           1           1           1           1
Shell to atom map                          I   N=          65
           1           1           1           1           1           1
           1           1           1           2           2           2
           2           2           2           2           2           2
           2           2           2           2           2           3
           3           3           3           3           3           3
           3           3           3           3           3           3
           3           4           4           4           4           4
           4           4           4           4           4           4
           4           4           4           5           5           5
           5           5           5           5           5           5
           5           5           5           5           5
Primitive exponents                        R   N=         119
  3.38700000E+01  5.09500000E+00  1.15900000E+00  3.25800000E-01  1.02700000E-01
  2.52600000E-02  1.40700000E+00  3.88000000E-01  1.02000000E-01  1.05700000E+00
  2.47000000E-01  1.53300000E+04  2.29900000E+03  5.22400000E+02  1.47300000E+02
  4.75500000E+01  1.67600000E+01  6.20700000E+00  5.22400000E+02  1.47300000E+02
  4.75500000E+01  1.67600000E+01  6.20700000E+00  6.88200000E-01  1.75200000E+00
  2.38400000E-01  7.37600000E-02  3.44600000E+01  7.74900000E+00  2.28000000E+00
  7.15600000E-01  2.14000000E-01  5.97400000E-02  2.31400000E+00  6.45000000E-01
  2.14000000E-01  1.42800000E+00  5.00000000E-01  1.53300000E+04  2.29900000E+03
  5.22400000E+02  1.47300000E+02  4.75500000E+01  1.67600000E+01  6.20700000E+00
  5.22400000E+02  1.47300000E+02  4.75500000E+01  1.67600000E+01  6.20700000E+00
  6.88200000E-01  1.75200000E+00  2.38400000E-01  7.37600000E-02  3.44600000E+01
  7.74900000E+00  2.28000000E+00  7.15600000E-01  2.14000000E-01  5.97400000E-02
  2.31400000E+00  6.45000000E-01  2.14000000E-01  1.42800000E+00  5.00000000E-01
  1.14200000E+04  1.71200000E+03  3.89300000E+02  1.10000000E+02  3.55700000E+01
  1.25400000E+01  4.64400000E+00  3.89300000E+02  1.10000000E+02  3.55700000E+01
  1.25400000E+01  4.64400000E+00  5.11800000E-01  1.29300000E+00  1.78700000E-01
  5.76000000E-02  2.66300000E+01  5.94800000E+00  1.74200000E+00  5.55000000E-01
  1.72500000E-01  4.91000000E-02  1.65400000E+00  4.69000000E-01  1.51000000E-01
  1.09300000E+00  3.64000000E-01  1.53300000E+04  2.29900000E+03  5.22400000E+02
  1.47300000E+02  4.75500000E+01  1.67600000E+01  6.20700000E+00  5.22400000E+02
  1.47300000E+02  4.75500000E+01  1.67600000E+01  6.20700000E+00  6.88200000E-01
  1.75200000E+00  2.38400000E-01  7.37600000E-02  3.44600000E+01  7.74900000E+00
  2.28000000E+00  7.15600000E-01  2.14000000E-01  5.97400000E-02  2.31400000E+00
  6.45000000E-01  2.14000000E-01  1.42800000E+00  5.00000000E-01
Contraction coefficients                   R   N=         119
  2.54948632E-02  1.90362766E-01  8.52162022E-01  1.00000000E+00  1.00000000E+00
  1.00000000E+00  1.00000000E+00  1.00000000E+00  1.00000000E+00  1.00000000E+00
  1.00000000E+00  5.19808943E-04  4.02025621E-03  2.07128267E-02  8.10105536E-02
  2.35962985E-01  4.42653446E-01  3.57064423E-01 -4.42115008E-05 -1.22591041E-03
 -1.05517725E-02 -6.74452633E-02 -1.71198607E-01  1.07329856E+00  1.00000000E+00
  1.00000000E+00  1.00000000E+00  4.11634896E-02  2.57762836E-01  8.02419274E-01
  1.00000000E+00  1.00000000E+00  1.00000000E+00  1.00000000E+00  1.00000000E+00
  1.00000000E+00  1.00000000E+00  1.00000000E+00  5.19808943E-04  4.02025621E-03
  2.07128267E-02  8.10105536E-02  2.35962985E-01  4.42653446E-01  3.57064423E-01
 -4.42115008E-05 -1.22591041E-03 -1.05517725E-02 -6.74452633E-02 -1.71198607E-01
  1.07329856E+00  1.00000000E+00  1.00000000E+00  1.00000000E+00  4.11634896E-02
  2.57762836E-01  8.02419274E-01  1.00000000E+00  1.00000000E+00  1.00000000E+00
  1.00000000E+00  1.00000000E+00  1.00000000E+00  1.00000000E+00  1.00000000E+00
  5.34563860E-04  4.13435660E-03  2.12335358E-02  8.25006224E-02  2.38138871E-01
  4.42551547E-01  3.53757422E-01 -4.89867350E-05 -1.19527323E-03 -1.03490714E-02
 -6.48680190E-02 -1.71552477E-01  1.07289568E+00  1.00000000E+00  1.00000000E+00
  1.00000000E+00  3.98072123E-02  2.49002660E-01  8.10479727E-01  1.00000000E+00
  1.00000000E+00  1.00000000E+00  1.00000000E+00  1.00000000E+00  1.00000000E+00
  1.00000000E+00  1.00000000E+00  5.19808943E-04  4.02025621E-03  2.07128267E-02
  8.10105536E-02  2.35962985E-01  4.42653446E-01  3.57064423E-01 -4.42115008E-05
 -1.22591041E-03 -1.05517725E-02 -6.74452633E-02 -1.71198607E-01  1.07329856E+00
  1.00000000E+00  1.00000000E+00  1.00000000E+00  4.11634896E-02  2.57762836E-01
  8.02419274E-01  1.00000000E+00  1.00000000E+00  1.00000000E+00  1.00000000E+00
  1.00000000E+00  1.00000000E+00  1.00000000E+00  1.00000000E+00
Coordinates of each shell                  R   N=         195
  2.86752359E+00  3.25479266E+00  8.12996277E-32  2.86752359E+00  3.25479266E+00
  8.12996277E-32  2.86752359E+00  3.25479266E+00  8.12996277E-32  2.86752359E+00
  3.25479266E+00  8.12996277E-32  2.86752359E+00  3.25479266E+00  8.12996277E-32
  2.86752359E+00  3.25479266E+00  8.12996277E-32  2.86752359E+00  3.25479266E+00
  8.12996277E-32  2.86752359E+00  3.25479266E+00  8.12996277E-32  2.86752359E+00
  3.25479266E+00  8.12996277E-32  2.74362156E+00  1.42789098E+00  4.66809764E-32
  2.74362156E+00  1.42789098E+00  4.66809764E-32  2.74362156E+00  1.42789098E+00
  4.66809764E-32  2.74362156E+00  1.42789098E+00  4.66809764E-32  2.74362156E+00
  1.42789098E+00  4.66809764E-32  2.74362156E+00  1.42789098E+00  4.66809764E-32
  2.74362156E+00  1.42789098E+00  4.66809764E-32  2.74362156E+00  1.42789098E+00
  4.66809764E-32  2.74362156E+00  1.42789098E+00  4.66809764E-32  2.74362156E+00
  1.42789098E+00  4.66809764E-32  2.74362156E+00  1.42789098E+00  4.66809764E-32
  2.74362156E+00  1.42789098E+00  4.66809764E-32  2.74362156E+00  1.42789098E+00
  4.66809764E-32  2.74362156E+00  1.42789098E+00  4.66809764E-32 -9.64081070E-18
  1.24974563E+00  2.30534979E-32 -9.64081070E-18  1.24974563E+00  2.30534979E-32
 -9.64081070E-18  1.24974563E+00  2.30534979E-32 -9.64081070E-18  1.24974563E+00
  2.30534979E-32 -9.64081070E-18  1.24974563E+00  2.30534979E-32 -9.64081070E-18
  1.24974563E+00  2.30534979E-32 -9.64081070E-18  1.24974563E+00  2.30534979E-32
 -9.64081070E-18  1.24974563E+00  2.30534979E-32 -9.64081070E-18  1.24974563E+00
  2.30534979E-32 -9.64081070E-18  1.24974563E+00  2.30534979E-32 -9.64081070E-18
  1.24974563E+00  2.30534979E-32 -9.64081070E-18  1.24974563E+00  2.30534979E-32
 -9.64081070E-18  1.24974563E+00  2.30534979E-32 -9.64081070E-18  1.24974563E+00
  2.30534979E-32 -4.88590781E-01 -1.46331296E+00 -3.06155087E-32 -4.88590781E-01
 -1.46331296E+00 -3.06155087E-32 -4.88590781E-01 -1.46331296E+00 -3.06155087E-32
 -4.88590781E-01 -1.46331296E+00 -3.06155087E-32 -4.88590781E-01 -1.46331296E+00
 -3.06155087E-32 -4.88590781E-01 -1.46331296E+00 -3.06155087E-32 -4.88590781E-01
 -1.46331296E+00 -3.06155087E-32 -4.88590781E-01 -1.46331296E+00 -3.06155087E-32
 -4.88590781E-01 -1.46331296E+00 -3.06155087E-32 -4.88590781E-01 -1.46331296E+00
 -3.06155087E-32 -4.88590781E-01 -1.46331296E+00 -3.06155087E-32 -4.88590781E-01
 -1.46331296E+00 -3.06155087E-32 -4.88590781E-01 -1.46331296E+00 -3.06155087E-32
 -4.88590781E-01 -1.46331296E+00 -3.06155087E-32 -2.67454507E+00 -1.80408685E+00
 -5.31083576E-32 -2.67454507E+00 -1.80408685E+00 -5.31083576E-32 -2.67454507E+00
 -1.80408685E+00 -5.31083576E-32 -2.67454507E+00 -1.80408685E+00 -5.31083576E-32
 -2.67454507E+00 -1.80408685E+00 -5.31083576E-32 -2.67454507E+00 -1.80408685E+00
 -5.31083576E-32 -2.67454507E+00 -1.80408685E+00 -5.31083576E-32 -2.67454507E+00
 -1.80408685E+00 -5.31083576E-32 -2.67454507E+00 -1.80408685E+00 -5.31083576E-32
 -2.67454507E+00 -1.80408685E+00 -5.31083576E-32 -2.67454507E+00 -1.80408685E+00
 -5.31083576E-32 -2.67454507E+00 -1.80408685E+00 -5.31083576E-32 -2.67454507E+00
 -1.80408685E+00 -5.31083576E-32 -2.67454507E+00 -1.80408685E+00 -5.31083576E-32
Num ILSW                                   I              100
ILSW                                       I   N=         100
           0           0           0           0           2           0
           0           0           0           0           0          -1
           5           0           0           0           0           0
           0           0           0           0           0           0
           1           0           0           0           0           0
           0           0      100000           0          -1           0
           0           0           0           0           0           0
           0           0           0           1           0           0
           0 -2000000000           1           0           0           0
           0           0           4          52           0           0
           0           0           0           0           0           0
           0           0           0           5           0           1
           0           0           0           0           0           0
           0           0           0           0           0           0
           0           0           0           0           0           0
           0           0           0           0           0           0
           0           0           0           0
Num RLSW                                   I               52
RLSW                                       R   N=          52
  1.00000000E+00  1.00000000E+00  1.00000000E+00  1.00000000E+00  1.00000000E+00
  0.00000000E+00  0.00000000E+00  1.00000000E+00  0.00000000E+00  0.00000000E+00
  0.00000000E+00  0.00000000E+00  1.00000000E+00  0.00000000E+00  0.00000000E+00
  0.00000000E+00  0.00000000E+00  1.00000000E+00  0.00000000E+00  0.00000000E+00
  0.00000000E+00  0.00000000E+00  1.00000000E+00  0.00000000E+00  0.00000000E+00
  0.00000000E+00  0.00000000E+00  1.00000000E+00  0.00000000E+00  0.00000000E+00
  0.00000000E+00  0.00000000E+00  1.00000000E+00  0.00000000E+00  0.00000000E+00
  0.00000000E+00  0.00000000E+00  0.00000000E+00  1.00000000E+00  1.00000000E+00
  0.00000000E+00  1.00000000E+00  0.00000000E+00  0.00000000E+00  0.00000000E+00
  0.00000000E+00  0.00000000E+00  0.00000000E+00  0.00000000E+00  0.00000000E+00
  0.00000000E+00  0.00000000E+00
MxBond                                     I                2
NBond                                      I   N=           5
           1           2           2           2           1
IBond                                      I   N=          10
           2           0           1           3           2           4
           3           5           4           0
RBond                                      R   N=          10
  1.00000000E+00  0.00000000E+00  1.00000000E+00  1.00000000E+00  1.00000000E+00
  1.00000000E+00  1.00000000E+00  2.00000000E+00  2.00000000E+00  0.00000000E+00
Virial Ratio                               R      2.002386127872576E+00
SCF Energy                                 R     -2.795016852655088E+02
MP2 Energy                                 R     -2.804466221503975E+02
Total Energy                               R     -2.804466221503975E+02
Post-SCF wavefunction norm                 R      1.120231503385710E+00
RMS Density                                R      3.807046686761623E-09
Job Status                                 I                1
Nuclear derivative order                   I                0
External E-field                           R   N=          35
  0.00000000E+00  0.00000000E+00  0.00000000E+00  0.00000000E+00  0.00000000E+00
  0.00000000E+00  0.00000000E+00  0.00000000E+00  0.00000000E+00  0.00000000E+00
  0.00000000E+00  0.00000000E+00  0.00000000E+00  0.00000000E+00  0.00000000E+00
  0.00000000E+00  0.00000000E+00  0.00000000E+00  0.00000000E+00  0.00000000E+00
  0.00000000E+00  0.00000000E+00  0.00000000E+00  0.00000000E+00  0.00000000E+00
  0.00000000E+00  0.00000000E+00  0.00000000E+00  0.00000000E+00  0.00000000E+00
  0.00000000E+00  0.00000000E+00  0.00000000E+00  0.00000000E+00  0.00000000E+00
IOpCl                                      I                0
IROHF                                      I                0
Alpha Orbital Energies                     R   N=         207
 -2.06903908E+01 -2.06846656E+01 -2.06605263E+01 -1.58133374E+01 -1.62398010E+00
 -1.49527677E+00 -1.25516752E+00 -9.47765639E-01 -7.71556069E-01 -7.59826215E-01
 -7.11553726E-01 -6.81770914E-01 -6.20882511E-01 -5.88201073E-01 -4.85079293E-01
 -4.72170393E-01  2.96332610E-02  7.14818534E-02  8.59747841E-02  1.02154284E-01
  1.33764135E-01  1.33780969E-01  1.43870327E-01  1.53972731E-01  1.78322888E-01
  1.94332459E-01  1.99978412E-01  2.06094817E-01  2.20647083E-01  2.35197838E-01
  2.37245167E-01  2.67262590E-01  2.93661239E-01  3.03005388E-01  3.10896926E-01
  3.43848156E-01  3.49201682E-01  3.86503870E-01  4.22457346E-01  4.32895167E-01
  5.27570857E-01  5.27830493E-01  5.56634365E-01  5.79184191E-01  6.25529030E-01
  6.39552095E-01  6.74829009E-01  6.84575706E-01  7.07320623E-01  7.10096283E-01
  7.24626202E-01  7.28520909E-01  7.44633306E-01  7.92135513E-01  7.93317140E-01
  8.11262145E-01  8.12613059E-01  8.29015938E-01  8.68207521E-01  9.08549427E-01
  9.21678304E-01  9.26781113E-01  9.53974486E-01  9.71962085E-01  9.83254491E-01
  1.01637315E+00  1.05071456E+00  1.05603289E+00  1.07789987E+00  1.11370842E+00
  1.13853002E+00  1.19149623E+00  1.21921875E+00  1.23478722E+00  1.34029333E+00
  1.35160391E+00  1.38421350E+00  1.45487842E+00  1.48821199E+00  1.50872666E+00
  1.53613314E+00  1.56533167E+00  1.57856581E+00  1.61113023E+00  1.66010775E+00
  1.67277644E+00  1.70329011E+00  1.79163763E+00  1.83593190E+00  1.83692169E+00
  1.87701956E+00  1.90726250E+00  1.95348390E+00  1.99091058E+00  2.00592369E+00
  2.07862583E+00  2.12480330E+00  2.13308862E+00  2.14949448E+00  2.22310033E+00
  2.26399147E+00  2.26541042E+00  2.29109159E+00  2.31198364E+00  2.33519927E+00
  2.38417354E+00  2.42147002E+00  2.42952360E+00  2.45529640E+00  2.46094935E+00
  2.47657636E+00  2.49664222E+00  2.58770521E+00  2.59799608E+00  2.61905288E+00
  2.62783569E+00  2.63862571E+00  2.66470877E+00  2.75356031E+00  2.81781236E+00
  2.83910365E+00  2.87450955E+00  2.89519135E+00  2.92721414E+00  2.96228492E+00
  3.01495650E+00  3.06408578E+00  3.11768135E+00  3.20273951E+00  3.22291744E+00
  3.31844024E+00  3.34971021E+00  3.52861428E+00  3.63398434E+00  3.83661174E+00
  3.84344230E+00  4.14673619E+00  4.16377590E+00  4.18203969E+00  4.25439462E+00
  4.35610629E+00  4.38980572E+00  4.46292182E+00  4.52079411E+00  4.65214812E+00
  4.70938646E+00  4.79935981E+00  4.82382780E+00  4.83147469E+00  4.89446593E+00
  5.02505059E+00  5.07775172E+00  5.10391814E+00  5.15165372E+00  5.17299099E+00
  5.23856503E+00  5.27340209E+00  5.30797341E+00  5.32530636E+00  5.34747865E+00
  5.59245827E+00  5.67335262E+00  5.76433713E+00  5.83155485E+00  5.95753477E+00
  6.16320187E+00  6.30896150E+00  6.33996694E+00  6.39614569E+00  6.49429590E+00
  6.50683821E+00  6.61060626E+00  6.67094131E+00  6.70124721E+00  6.75225834E+00
  6.76313425E+00  6.83140727E+00  6.90062499E+00  7.01753799E+00  7.05580900E+00
  7.06127173E+00  7.08975599E+00  7.12278114E+00  7.14654518E+00  7.18062616E+00
  7.22690944E+00  7.23962561E+00  7.30605119E+00  7.32570852E+00  7.33741452E+00
  7.39543291E+00  7.43410952E+00  7.48170745E+00  7.61328924E+00  7.61576304E+00
  7.62004477E+00  7.66112526E+00  7.78632500E+00  7.87911072E+00  8.09589165E+00
  8.31385071E+00  8.40948917E+00  8.54577302E+00  1.33763868E+01  1.44250811E+01
  1.51444979E+01  1.61499884E+01
Alpha MO coefficients                      R   N=       42849
  9.28585543E-05 -6.65480988E-04 -7.42515020E-04 -6.38642210E-06 -2.26398844E-05
 -2.73411770E-05  0.00000000E+00 -4.04850615E-05  6.82235022E-05  0.00000000E+00
  9.22961884E-05  4.21177648E-05  0.00000000E+00  3.25027017E-05  0.00000000E+00
  0.00000000E+00 -5.06546510E-05  1.79654453E-05 -4.13243325E-06  0.00000000E+00
  0.00000000E+00 -1.48998436E-04  1.09744328E-04  4.73898060E-03 -2.80787418E-04
  1.89335695E-05  1.62953216E-03  1.84238813E-03  1.07524380E-04  1.08167197E-05
  0.00000000E+00 -6.27036035E-04 -5.48673022E-05  0.00000000E+00 -1.15863147E-03
  7.78497150E-04  0.00000000E+00 -4.09856462E-04  5.18770736E-05  0.00000000E+00
  2.87986049E-05  0.00000000E+00  0.00000000E+00 -5.45699588E-05  2.46625381E-06
 -3.81774888E-04  0.00000000E+00  0.00000000E+00  7.44787326E-04  1.51978995E-05
 -4.50394460E-04  0.00000000E+00  0.00000000E+00  2.53754912E-04 -2.70961656E-06
  0.00000000E+00  8.03383193E-05  1.53717088E-05  0.00000000E+00  0.00000000E+00
 -1.08271704E-04 -1.29783097E-05  0.00000000E+00  2.53980621E-04 -2.17502000E-05
  0.00000000E+00  0.00000000E+00 -3.62789463E-04  1.61248507E-05  9.76908939E-01
 -9.20519018E-03  4.33237738E-02  1.97085604E-03 -9.24593072E-04  1.51747007E-03
 -1.32837216E-03  0.00000000E+00 -1.45062339E-03  1.34846697E-03  0.00000000E+00
  6.05503811E-05 -1.16257657E-03  0.00000000E+00 -1.42645935E-04 -1.46362905E-05
  0.00000000E+00  4.37802260E-05  0.00000000E+00  0.00000000E+00 -3.50394792E-05
  2.43798507E-05  7.53838433E-04  0.00000000E+00  0.00000000E+00 -2.24213823E-04
 -4.32048904E-04 -3.58374650E-04  0.00000000E+00  0.00000000E+00 -3.06979366E-04
 -3.71618084E-04  0.00000000E+00  4.73839447E-05 -4.75198134E-05  0.00000000E+00
  0.00000000E+00 -3.84477073E-05 -1.85330482E-05  0.00000000E+00  2.52122545E-05
  2.27006412E-05  0.00000000E+00  0.00000000E+00 -3.06057445E-04 -1.62172719E-04
  4.01734970E-05  5.12659041E-05 -2.67421153E-04 -6.69482367E-04 -1.37967157E-04
 -2.74226726E-05 -9.86875888E-05  0.00000000E+00  2.81432411E-04  7.27099382E-04
  0.00000000E+00 -8.59450555E-04 -4.78479217E-04  0.00000000E+00 -1.20499479E-04
 -2.57672339E-05  0.00000000E+00 -1.86481155E-05  0.00000000E+00  0.00000000E+00
 -3.09946078E-05  1.49420017E-05 -3.30643070E-04  0.00000000E+00  0.00000000E+00
 -8.33046792E-04  1.28818267E-04 -3.62021984E-05  0.00000000E+00  0.00000000E+00
  1.01187847E-04 -1.21246099E-04  0.00000000E+00 -2.11980108E-05 -1.20611414E-04
  0.00000000E+00  0.00000000E+00 -6.00735871E-05 -1.37854546E-04  0.00000000E+00
  9.10589663E-06 -1.47386175E-04  0.00000000E+00  0.00000000E+00  4.45081541E-05
 -4.27785106E-04 -2.92732910E-03  1.24846502E-04 -1.40430989E-04 -2.68670202E-04
  1.28302077E-04 -8.68824480E-06 -2.90039987E-05  0.00000000E+00  6.97394427E-05
  1.71482710E-04  0.00000000E+00  2.31892845E-04  1.90389374E-04  0.00000000E+00
  1.25151373E-04  1.83172849E-05  0.00000000E+00 -3.51411838E-06  0.00000000E+00
  0.00000000E+00 -1.80481272E-05  1.14807399E-06  1.62870717E-07  0.00000000E+00
  0.00000000E+00  8.19518783E-05  9.09481935E-05 -1.00606022E-04  0.00000000E+00
  0.00000000E+00  1.73283423E-04  1.57675255E-04  0.00000000E+00  1.56980186E-05
 -3.74676641E-06  0.00000000E+00  0.00000000E+00 -4.62219689E-06 -1.16948268E-05
  0.00000000E+00 -3.39367579E-05  4.60000332E-05  0.00000000E+00  0.00000000E+00
  8.69288833E-05  9.06221285E-05  3.60207178E-05 -9.78609076E-04 -5.03004005E-04
 -9.40685731E-06 -2.24608172E-05  1.66276460E-05  0.00000000E+00 -5.66870338E-06
  2.77782891E-04  0.00000000E+00 -3.58646635E-05  1.39173227E-04  0.00000000E+00
  2.51958984E-05  0.00000000E+00  0.00000000E+00  1.35381660E-05  1.21965089E-05
 -2.26464179E-05  0.00000000E+00  0.00000000E+00  7.37924799E-06  3.09652851E-05
  1.13373578E-04  7.23357469E-05 -2.74621891E-05  7.83786131E-04  7.13002345E-04
  9.99884323E-06  2.72084121E-06  0.00000000E+00 -6.74716272E-05  1.86461066E-05
  0.00000000E+00  2.71758583E-04  8.54061414E-04  0.00000000E+00 -1.62535570E-05
  7.22298885E-05  0.00000000E+00 -1.59884973E-06  0.00000000E+00  0.00000000E+00
  1.88842919E-07 -7.97835767E-06 -3.84854626E-05  0.00000000E+00  0.00000000E+00
 -2.82304259E-05  9.19081250E-05 -2.86861039E-05  0.00000000E+00  0.00000000E+00
 -2.53917897E-04 -1.47728478E-04  0.00000000E+00  9.11943004E-06  5.97585070E-06
  0.00000000E+00  0.00000000E+00  3.17589518E-06 -1.90788012E-05  0.00000000E+00
 -3.78543043E-05 -3.64780049E-05  0.00000000E+00  0.00000000E+00 -7.11324621E-05
  3.75830797E-06  2.96655538E-03  3.70614475E-05  1.06302178E-04 -6.98669649E-05
 -4.86467415E-04  7.53914402E-06  1.57902480E-05  0.00000000E+00 -6.24651209E-05
 -5.88177788E-05  0.00000000E+00  2.32772599E-04 -1.53825664E-04  0.00000000E+00
 -2.05235900E-04 -7.08188316E-05  0.00000000E+00 -8.67000783E-06  0.00000000E+00
  0.00000000E+00  2.25232884E-05  1.91540947E-05  4.03466899E-06  0.00000000E+00
  0.00000000E+00 -1.18386219E-04 -4.37617425E-05 -2.68935416E-06  0.00000000E+00
  0.00000000E+00 -2.21468175E-04 -1.85425866E-04  0.00000000E+00  3.35397732E-06
  2.38775466E-07  0.00000000E+00  0.00000000E+00  1.91719337E-06 -1.45799292E-05
  0.00000000E+00 -4.71509905E-05  8.47628922E-08  0.00000000E+00  0.00000000E+00
 -7.94852165E-05  1.96013044E-04  2.58753658E-04  1.46585310E-03 -7.83999234E-05
 -1.55294981E-03  3.67013566E-04 -1.44690331E-04 -3.98349213E-07  0.00000000E+00
 -2.07999815E-03 -4.03650152E-04  0.00000000E+00  9.89911289E-04  7.39088096E-04
  0.00000000E+00 -1.68624635E-04  5.12457288E-05  0.00000000E+00 -1.23496679E-04
  0.00000000E+00  0.00000000E+00  2.42534867E-04  9.57640196E-05 -4.40748500E-04
  0.00000000E+00  0.00000000E+00  8.99574023E-04 -6.81827568E-05  1.41493652E-05
  0.00000000E+00  0.00000000E+00 -3.30905524E-04 -1.33822932E-04  0.00000000E+00
 -2.25729389E-06  1.47494657E-05  0.00000000E+00  0.00000000E+00  1.99757272E-05
  1.52470810E-05  0.00000000E+00  1.71206493E-04 -6.89450759E-05  0.00000000E+00
  0.00000000E+00 -2.42251570E-04  3.39594478E-05  9.76648677E-01 -9.85113154E-03
  4.35655921E-02  4.47908686E-03 -4.39344421E-04  2.14837271E-03  4.88755318E-04
  0.00000000E+00 -2.38358900E-03 -6.10192089E-04  0.00000000E+00  1.14613328E-03
 -5.42006605E-07  0.00000000E+00  6.99271094E-06 -4.59450811E-05  0.00000000E+00
 -2.31699878E-04  0.00000000E+00  0.00000000E+00  1.02932944E-04  3.16325825E-05
  3.90440105E-04  0.00000000E+00  0.00000000E+00 -8.29468061E-04 -4.23115461E-04
 -1.57992784E-04  0.00000000E+00  0.00000000E+00  2.61620553E-04  2.13372215E-05
  0.00000000E+00  5.22531844E-05  1.80547490E-05  0.00000000E+00  0.00000000E+00
 -2.16101055E-05 -1.36996842E-05  0.00000000E+00  1.37182629E-04  8.90193520E-06
  0.00000000E+00  0.00000000E+00 -1.87869732E-04 -1.41665923E-04  4.70945243E-04
  1.96846601E-03  8.58828396E-05  1.42242640E-05 -3.53902570E-05 -2.44501806E-04
  0.00000000E+00  1.54854119E-04 -1.24295801E-03  0.00000000E+00  3.50947246E-04
 -3.15423961E-04  0.00000000E+00 -1.39323051E-06  0.00000000E+00  0.00000000E+00
  7.63952339E-05  2.18799455E-05 -1.61830516E-04  0.00000000E+00  0.00000000E+00
 -5.33848147E-04 -5.88514631E-05  9.76831164E-01 -9.15905392E-03  4.34461769E-02
  2.35028972E-04 -1.22597282E-03 -1.61281002E-03  1.38895442E-03  0.00000000E+00
  1.62134329E-03 -1.22930411E-03  0.00000000E+00 -5.35967658E-04 -7.64556055E-04
  0.00000000E+00  6.16461718E-05 -5.87777220E-05  0.00000000E+00  3.04679929E-05
  0.00000000E+00  0.00000000E+00 -1.16136437E-04 -1.21561789E-05  7.52565701E-04
  0.00000000E+00  0.00000000E+00 -2.00452864E-04 -2.45091101E-04 -2.66652238E-04
  0.00000000E+00  0.00000000E+00  1.59169930E-04  1.02545249E-04  0.00000000E+00
 -6.47587128E-05  5.37290900E-07  0.00000000E+00  0.00000000E+00  1.97485356E-05
  1.12966413E-05  0.00000000E+00 -5.39339588E-06  1.14266834E-04  0.00000000E+00
  0.00000000E+00  2.40150316E-04  1.11485069E-04 -4.83040785E-03 -2.09827603E-04