 Entering Gaussian System, Link 0=g16
 Input=hoono_r3_1p482113.gjf
 Output=hoono_r3_1p482113.log
 Initial command:
 /sw/contrib/gaussian/g16/B01/g16/l1.exe "/scr/Gau-15819.inp" -scrdir="/scr/"
 Entering Link 1 = /sw/contrib/gaussian/g16/B01/g16/l1.exe PID=     15820.
  
 Copyright (c) 1988-2017, Gaussian, Inc.  All Rights Reserved.
  
 This is part of the Gaussian(R) 16 program.  It is based on
 the Gaussian(R) 09 system (copyright 2009, Gaussian, Inc.),
 the Gaussian(R) 03 system (copyright 2003, Gaussian, Inc.),
 the Gaussian(R) 98 system (copyright 1998, Gaussian, Inc.),
 the Gaussian(R) 94 system (copyright 1995, Gaussian, Inc.),
 the Gaussian 92(TM) system (copyright 1992, Gaussian, Inc.),
 the Gaussian 90(TM) system (copyright 1990, Gaussian, Inc.),
 the Gaussian 88(TM) system (copyright 1988, Gaussian, Inc.),
 the Gaussian 86(TM) system (copyright 1986, Carnegie Mellon
 University), and the Gaussian 82(TM) system (copyright 1983,
 Carnegie Mellon University). Gaussian is a federally registered
 trademark of Gaussian, Inc.
  
 This software contains proprietary and confidential information,
 including trade secrets, belonging to Gaussian, Inc.
  
 This software is provided under written license and may be
 used, copied, transmitted, or stored only in accord with that
 written license.
  
 The following legend is applicable only to US Government
 contracts under FAR:
  
                    RESTRICTED RIGHTS LEGEND
  
 Use, reproduction and disclosure by the US Government is
 subject to restrictions as set forth in subparagraphs (a)
 and (c) of the Commercial Computer Software - Restricted
 Rights clause in FAR 52.227-19.
  
 Gaussian, Inc.
 340 Quinnipiac St., Bldg. 40, Wallingford CT 06492
  
  
 ---------------------------------------------------------------
 Warning -- This program may not be used in any manner that
 competes with the business of Gaussian, Inc. or will provide
 assistance to any competitor of Gaussian, Inc.  The licensee
 of this program is prohibited from giving any competitor of
 Gaussian, Inc. access to this program.  By using this program,
 the user acknowledges that Gaussian, Inc. is engaged in the
 business of creating and licensing software in the field of
 computational chemistry and represents and warrants to the
 licensee that it is not a competitor of Gaussian, Inc. and that
 it will not use this program in any manner prohibited above.
 ---------------------------------------------------------------
  

 Cite this work as:
 Gaussian 16, Revision B.01,
 M. J. Frisch, G. W. Trucks, H. B. Schlegel, G. E. Scuseria, 
 M. A. Robb, J. R. Cheeseman, G. Scalmani, V. Barone, 
 G. A. Petersson, H. Nakatsuji, X. Li, M. Caricato, A. V. Marenich, 
 J. Bloino, B. G. Janesko, R. Gomperts, B. Mennucci, H. P. Hratchian, 
 J. V. Ortiz, A. F. Izmaylov, J. L. Sonnenberg, D. Williams-Young, 
 F. Ding, F. Lipparini, F. Egidi, J. Goings, B. Peng, A. Petrone, 
 T. Henderson, D. Ranasinghe, V. G. Zakrzewski, J. Gao, N. Rega, 
 G. Zheng, W. Liang, M. Hada, M. Ehara, K. Toyota, R. Fukuda, 
 J. Hasegawa, M. Ishida, T. Nakajima, Y. Honda, O. Kitao, H. Nakai, 
 T. Vreven, K. Throssell, J. A. Montgomery, Jr., J. E. Peralta, 
 F. Ogliaro, M. J. Bearpark, J. J. Heyd, E. N. Brothers, K. N. Kudin, 
 V. N. Staroverov, T. A. Keith, R. Kobayashi, J. Normand, 
 K. Raghavachari, A. P. Rendell, J. C. Burant, S. S. Iyengar, 
 J. Tomasi, M. Cossi, J. M. Millam, M. Klene, C. Adamo, R. Cammi, 
 J. W. Ochterski, R. L. Martin, K. Morokuma, O. Farkas, 
 J. B. Foresman, and D. J. Fox, Gaussian, Inc., Wallingford CT, 2016.
 
 ******************************************
 Gaussian 16:  ES64L-G16RevB.01 20-Dec-2017
                14-Feb-2022 
 ******************************************
 %nproc=28
 Will use up to   28 processors via shared memory.
 %mem=120GB
 %chk=hoono_r3_1p482113.chk
 -------------------------------------
 #p SP mp2/aug-cc-pvtz density=current
 -------------------------------------
 1/30=1,38=1,172=1/1;
 2/12=2,17=6,18=5,40=1/2;
 3/5=16,6=1,7=10,11=9,25=1,30=1,71=1/1,2,3;
 4//1;
 5/5=2,38=5/2;
 8/6=4,10=1/1;
 9/15=1,16=-3/6;
 10/5=1,13=10/2;
 6/7=2,8=2,9=2,10=2,22=-1/1;
 99/5=1,9=1/99;
 Leave Link    1 at Mon Feb 14 22:10:23 2022, MaxMem= 16106127360 cpu:               3.4 elap:               0.1
 (Enter /sw/contrib/gaussian/g16/B01/g16/l101.exe)
 -----
 title
 -----
 Symbolic Z-matrix:
 Charge =  0 Multiplicity = 1
 H
 O                    1    r1
 O                    2    r2       1    a1
 N                    3    r3       2    a2       1    d1       0
 O                    4    r4       3    a3       2    d2       0
       Variables:
  r1                    0.96898                  
  r2                    1.45492                  
  r3                    1.48211                  
  r4                    1.17073                  
  a1                   97.59495                  
  a2                  102.29752                  
  a3                  109.06955                  
  d1                  180.                       
  d2                  180.                       
 
 ITRead=  0  0  0  0  0
 MicOpt= -1 -1 -1 -1 -1
 NAtoms=      5 NQM=        5 NQMF=       0 NMMI=      0 NMMIF=      0
                NMic=       0 NMicF=      0.
                    Isotopes and Nuclear Properties:
 (Nuclear quadrupole moments (NQMom) in fm**2, nuclear magnetic moments (NMagM)
  in nuclear magnetons)

  Atom         1           2           3           4           5
 IAtWgt=           1          16          16          14          16
 AtmWgt=   1.0078250  15.9949146  15.9949146  14.0030740  15.9949146
 NucSpn=           1           0           0           2           0
 AtZEff=  -0.0000000  -0.0000000  -0.0000000  -0.0000000  -0.0000000
 NQMom=    0.0000000   0.0000000   0.0000000   2.0440000   0.0000000
 NMagM=    2.7928460   0.0000000   0.0000000   0.4037610   0.0000000
 AtZNuc=   1.0000000   8.0000000   8.0000000   7.0000000   8.0000000
 Leave Link  101 at Mon Feb 14 22:10:23 2022, MaxMem= 16106127360 cpu:               3.3 elap:               0.2
 (Enter /sw/contrib/gaussian/g16/B01/g16/l202.exe)
                          Input orientation:                          
 ---------------------------------------------------------------------
 Center     Atomic      Atomic             Coordinates (Angstroms)
 Number     Number       Type             X           Y           Z
 ---------------------------------------------------------------------
      1          1           0        0.000000    0.000000    0.000000
      2          8           0        0.000000    0.000000    0.968976
      3          8           0        1.442156    0.000000    1.161271
      4          7           0        1.563664    0.000000    2.638396
      5          8           0        2.697780    0.000000    2.928890
 ---------------------------------------------------------------------
                    Distance matrix (angstroms):
                    1          2          3          4          5
     1  H    0.000000
     2  O    0.968976   0.000000
     3  O    1.851584   1.454919   0.000000
     4  N    3.066949   2.287358   1.482114   0.000000
     5  O    3.982012   3.334559   2.168195   1.170729   0.000000
 Stoichiometry    HNO3
 Framework group  CS[SG(HNO3)]
 Deg. of freedom     7
 Full point group                 CS      NOp   2
 Largest Abelian subgroup         CS      NOp   2
 Largest concise Abelian subgroup C1      NOp   1
                         Standard orientation:                         
 ---------------------------------------------------------------------
 Center     Atomic      Atomic             Coordinates (Angstroms)
 Number     Number       Type             X           Y           Z
 ---------------------------------------------------------------------
      1          1           0        1.546196    1.702416   -0.000000
      2          8           0        1.453914    0.737845   -0.000000
      3          8           0        0.000000    0.683770   -0.000000
      4          7           0       -0.261633   -0.775068    0.000000
      5          8           0       -1.418260   -0.956233    0.000000
 ---------------------------------------------------------------------
 Rotational constants (GHZ):          53.9814256           4.9521822           4.5360511
 Leave Link  202 at Mon Feb 14 22:10:23 2022, MaxMem= 16106127360 cpu:               0.3 elap:               0.0
 (Enter /sw/contrib/gaussian/g16/B01/g16/l301.exe)
 Standard basis: Aug-CC-pVTZ (5D, 7F)
 Ernie: Thresh=  0.10000D-02 Tol=  0.10000D-05 Strict=F.
 Ernie:  12 primitive shells out of 131 were deleted.
 There are   166 symmetry adapted cartesian basis functions of A'  symmetry.
 There are    79 symmetry adapted cartesian basis functions of A"  symmetry.
 There are   136 symmetry adapted basis functions of A'  symmetry.
 There are    71 symmetry adapted basis functions of A"  symmetry.
   207 basis functions,   315 primitive gaussians,   245 cartesian basis functions
    16 alpha electrons       16 beta electrons
       nuclear repulsion energy       116.2428649383 Hartrees.
 IExCor=    0 DFT=F Ex=HF Corr=None ExCW=0 ScaHFX=  1.000000
 ScaDFX=  1.000000  1.000000  1.000000  1.000000 ScalE2=  1.000000  1.000000
 IRadAn=      5 IRanWt=     -1 IRanGd=            0 ICorTp=0 IEmpDi=  4
 NAtoms=    5 NActive=    5 NUniq=    5 SFac= 1.00D+00 NAtFMM=   60 NAOKFM=F Big=F
 Integral buffers will be    131072 words long.
 Raffenetti 1 integral format.
 Two-electron integral symmetry is turned on.
 Leave Link  301 at Mon Feb 14 22:10:23 2022, MaxMem= 16106127360 cpu:               1.6 elap:               0.1
 (Enter /sw/contrib/gaussian/g16/B01/g16/l302.exe)
 NPDir=0 NMtPBC=     1 NCelOv=     1 NCel=       1 NClECP=     1 NCelD=      1
         NCelK=      1 NCelE2=     1 NClLst=     1 CellRange=     0.0.
 One-electron integrals computed using PRISM.
 One-electron integral symmetry used in STVInt
 NBasis=   207 RedAO= T EigKep=  1.84D-04  NBF=   136    71
 NBsUse=   207 1.00D-06 EigRej= -1.00D+00 NBFU=   136    71
 Leave Link  302 at Mon Feb 14 22:10:24 2022, MaxMem= 16106127360 cpu:               5.9 elap:               0.3
 (Enter /sw/contrib/gaussian/g16/B01/g16/l303.exe)
 DipDrv:  MaxL=1.
 Leave Link  303 at Mon Feb 14 22:10:24 2022, MaxMem= 16106127360 cpu:               1.7 elap:               0.1
 (Enter /sw/contrib/gaussian/g16/B01/g16/l401.exe)
 ExpMin= 2.53D-02 ExpMax= 1.53D+04 ExpMxC= 5.22D+02 IAcc=3 IRadAn=         5 AccDes= 0.00D+00
 Harris functional with IExCor=  205 and IRadAn=       5 diagonalized for initial guess.
 HarFok:  IExCor=  205 AccDes= 0.00D+00 IRadAn=         5 IDoV= 1 UseB2=F ITyADJ=14
 ICtDFT=  3500011 ScaDFX=  1.000000  1.000000  1.000000  1.000000
 FoFCou: FMM=F IPFlag=           0 FMFlag=      100000 FMFlg1=           0
         NFxFlg=           0 DoJE=T BraDBF=F KetDBF=T FulRan=T
         wScrn=  0.000000 ICntrl=       500 IOpCl=  0 I1Cent=   200000004 NGrid=           0
         NMat0=    1 NMatS0=      1 NMatT0=    0 NMatD0=    1 NMtDS0=    0 NMtDT0=    0
 Petite list used in FoFCou.
 Harris En= -279.627747649807    
 JPrj=0 DoOrth=F DoCkMO=F.
 Initial guess orbital symmetries:
       Occupied  (A') (A') (A') (A') (A') (A') (A') (A') (A') (A')
                 (A") (A') (A') (A") (A") (A')
       Virtual   (A") (A') (A') (A') (A') (A') (A") (A') (A') (A')
                 (A") (A') (A") (A') (A') (A") (A') (A") (A') (A')
                 (A') (A') (A') (A') (A') (A") (A') (A") (A') (A')
                 (A") (A') (A") (A') (A') (A") (A') (A") (A') (A')
                 (A") (A') (A") (A') (A") (A') (A') (A') (A") (A")
                 (A') (A') (A') (A') (A") (A') (A") (A') (A") (A')
                 (A') (A') (A") (A') (A') (A") (A') (A") (A') (A')
                 (A") (A') (A') (A") (A") (A') (A') (A") (A') (A')
                 (A') (A") (A') (A") (A') (A") (A') (A") (A') (A')
                 (A') (A") (A') (A") (A') (A") (A") (A') (A') (A')
                 (A") (A') (A") (A') (A') (A') (A") (A') (A") (A')
                 (A") (A') (A') (A') (A") (A') (A') (A') (A") (A')
                 (A") (A') (A') (A") (A") (A') (A') (A") (A") (A')
                 (A') (A') (A') (A") (A") (A') (A") (A') (A') (A')
                 (A') (A") (A") (A') (A') (A") (A') (A') (A') (A')
                 (A") (A') (A') (A") (A') (A") (A') (A") (A") (A')
                 (A') (A") (A') (A") (A') (A") (A") (A") (A') (A')
                 (A") (A') (A") (A') (A") (A') (A") (A") (A') (A')
                 (A') (A') (A') (A') (A') (A') (A') (A') (A') (A')
                 (A')
 The electronic state of the initial guess is 1-A'.
 Leave Link  401 at Mon Feb 14 22:10:24 2022, MaxMem= 16106127360 cpu:               7.3 elap:               0.3
 (Enter /sw/contrib/gaussian/g16/B01/g16/l502.exe)
 Keep R1 ints in memory in symmetry-blocked form, NReq=348887737.
 FoFCou: FMM=F IPFlag=           0 FMFlag=           0 FMFlg1=           0
         NFxFlg=           0 DoJE=F BraDBF=F KetDBF=F FulRan=T
         wScrn=  0.000000 ICntrl=       600 IOpCl=  0 I1Cent=           0 NGrid=           0
         NMat0=    1 NMatS0=  21528 NMatT0=    0 NMatD0=    1 NMtDS0=    0 NMtDT0=    0
 Petite list used in FoFCou.
 Closed shell SCF:
 Using DIIS extrapolation, IDIIS=  1040.
 NGot= 16106127360 LenX= 15988850015 LenY= 15988789549
 Requested convergence on RMS density matrix=1.00D-08 within 128 cycles.
 Requested convergence on MAX density matrix=1.00D-06.
 Requested convergence on             energy=1.00D-06.
 No special actions if energy rises.

 Cycle   1  Pass 1  IDiag  1:
 E= -279.370458098997    
 DIIS: error= 2.74D-02 at cycle   1 NSaved=   1.
 NSaved= 1 IEnMin= 1 EnMin= -279.370458098997     IErMin= 1 ErrMin= 2.74D-02
 ErrMax= 2.74D-02  0.00D+00 EMaxC= 1.00D-01 BMatC= 4.35D-01 BMatP= 4.35D-01
 IDIUse=3 WtCom= 7.26D-01 WtEn= 2.74D-01
 Coeff-Com:  0.100D+01
 Coeff-En:   0.100D+01
 Coeff:      0.100D+01
 Gap=     0.502 Goal=   None    Shift=    0.000
 GapD=    0.502 DampG=2.000 DampE=0.500 DampFc=1.0000 IDamp=-1.
 RMSDP=1.61D-03 MaxDP=1.01D-01              OVMax= 1.07D-01

 Cycle   2  Pass 1  IDiag  1:
 E= -279.452844668373     Delta-E=       -0.082386569376 Rises=F Damp=F
 DIIS: error= 1.76D-02 at cycle   2 NSaved=   2.
 NSaved= 2 IEnMin= 2 EnMin= -279.452844668373     IErMin= 2 ErrMin= 1.76D-02
 ErrMax= 1.76D-02  0.00D+00 EMaxC= 1.00D-01 BMatC= 6.72D-02 BMatP= 4.35D-01
 IDIUse=3 WtCom= 8.24D-01 WtEn= 1.76D-01
 Coeff-Com:  0.186D+00 0.814D+00
 Coeff-En:   0.000D+00 0.100D+01
 Coeff:      0.153D+00 0.847D+00
 Gap=     0.525 Goal=   None    Shift=    0.000
 RMSDP=8.76D-04 MaxDP=3.65D-02 DE=-8.24D-02 OVMax= 7.09D-02

 Cycle   3  Pass 1  IDiag  1:
 E= -279.479855904100     Delta-E=       -0.027011235726 Rises=F Damp=F
 DIIS: error= 1.06D-02 at cycle   3 NSaved=   3.
 NSaved= 3 IEnMin= 3 EnMin= -279.479855904100     IErMin= 3 ErrMin= 1.06D-02
 ErrMax= 1.06D-02  0.00D+00 EMaxC= 1.00D-01 BMatC= 2.77D-02 BMatP= 6.72D-02
 IDIUse=3 WtCom= 8.94D-01 WtEn= 1.06D-01
 Coeff-Com: -0.323D-01 0.382D+00 0.651D+00
 Coeff-En:   0.000D+00 0.244D+00 0.756D+00
 Coeff:     -0.289D-01 0.367D+00 0.662D+00
 Gap=     0.510 Goal=   None    Shift=    0.000
 RMSDP=3.70D-04 MaxDP=1.59D-02 DE=-2.70D-02 OVMax= 3.59D-02

 Cycle   4  Pass 1  IDiag  1:
 E= -279.498172351972     Delta-E=       -0.018316447872 Rises=F Damp=F
 DIIS: error= 1.32D-03 at cycle   4 NSaved=   4.
 NSaved= 4 IEnMin= 4 EnMin= -279.498172351972     IErMin= 4 ErrMin= 1.32D-03
 ErrMax= 1.32D-03  0.00D+00 EMaxC= 1.00D-01 BMatC= 5.20D-04 BMatP= 2.77D-02
 IDIUse=3 WtCom= 9.87D-01 WtEn= 1.32D-02
 Coeff-Com: -0.121D-01 0.650D-01 0.170D+00 0.777D+00
 Coeff-En:   0.000D+00 0.000D+00 0.000D+00 0.100D+01
 Coeff:     -0.120D-01 0.641D-01 0.168D+00 0.780D+00
 Gap=     0.502 Goal=   None    Shift=    0.000
 RMSDP=9.04D-05 MaxDP=2.84D-03 DE=-1.83D-02 OVMax= 1.16D-02

 Cycle   5  Pass 1  IDiag  1:
 E= -279.498873542407     Delta-E=       -0.000701190436 Rises=F Damp=F
 DIIS: error= 7.76D-04 at cycle   5 NSaved=   5.
 NSaved= 5 IEnMin= 5 EnMin= -279.498873542407     IErMin= 5 ErrMin= 7.76D-04
 ErrMax= 7.76D-04  0.00D+00 EMaxC= 1.00D-01 BMatC= 9.15D-05 BMatP= 5.20D-04
 IDIUse=3 WtCom= 9.92D-01 WtEn= 7.76D-03
 Coeff-Com:  0.630D-02-0.753D-01-0.123D+00 0.108D-01 0.118D+01
 Coeff-En:   0.000D+00 0.000D+00 0.000D+00 0.000D+00 0.100D+01
 Coeff:      0.625D-02-0.747D-01-0.122D+00 0.108D-01 0.118D+01
 Gap=     0.502 Goal=   None    Shift=    0.000
 RMSDP=7.94D-05 MaxDP=2.16D-03 DE=-7.01D-04 OVMax= 1.15D-02

 Cycle   6  Pass 1  IDiag  1:
 E= -279.499213055972     Delta-E=       -0.000339513565 Rises=F Damp=F
 DIIS: error= 2.85D-04 at cycle   6 NSaved=   6.
 NSaved= 6 IEnMin= 6 EnMin= -279.499213055972     IErMin= 6 ErrMin= 2.85D-04
 ErrMax= 2.85D-04  0.00D+00 EMaxC= 1.00D-01 BMatC= 1.75D-05 BMatP= 9.15D-05
 IDIUse=3 WtCom= 9.97D-01 WtEn= 2.85D-03
 Coeff-Com:  0.669D-03 0.902D-03 0.374D-02-0.124D+00-0.242D+00 0.136D+01
 Coeff-En:   0.000D+00 0.000D+00 0.000D+00 0.000D+00 0.000D+00 0.100D+01
 Coeff:      0.667D-03 0.899D-03 0.373D-02-0.124D+00-0.241D+00 0.136D+01
 Gap=     0.502 Goal=   None    Shift=    0.000
 RMSDP=4.74D-05 MaxDP=1.32D-03 DE=-3.40D-04 OVMax= 5.72D-03

 Cycle   7  Pass 1  IDiag  1:
 E= -279.499292062488     Delta-E=       -0.000079006516 Rises=F Damp=F
 DIIS: error= 1.40D-04 at cycle   7 NSaved=   7.
 NSaved= 7 IEnMin= 7 EnMin= -279.499292062488     IErMin= 7 ErrMin= 1.40D-04
 ErrMax= 1.40D-04  0.00D+00 EMaxC= 1.00D-01 BMatC= 5.11D-06 BMatP= 1.75D-05
 IDIUse=3 WtCom= 9.99D-01 WtEn= 1.40D-03
 Coeff-Com: -0.969D-03 0.143D-01 0.282D-01-0.243D-01-0.306D+00 0.429D+00
 Coeff-Com:  0.859D+00
 Coeff-En:   0.000D+00 0.000D+00 0.000D+00 0.000D+00 0.000D+00 0.000D+00
 Coeff-En:   0.100D+01
 Coeff:     -0.967D-03 0.143D-01 0.282D-01-0.242D-01-0.305D+00 0.429D+00
 Coeff:      0.859D+00
 Gap=     0.502 Goal=   None    Shift=    0.000
 RMSDP=1.40D-05 MaxDP=4.00D-04 DE=-7.90D-05 OVMax= 1.61D-03

 Cycle   8  Pass 1  IDiag  1:
 E= -279.499301998501     Delta-E=       -0.000009936013 Rises=F Damp=F
 DIIS: error= 5.86D-05 at cycle   8 NSaved=   8.
 NSaved= 8 IEnMin= 8 EnMin= -279.499301998501     IErMin= 8 ErrMin= 5.86D-05
 ErrMax= 5.86D-05  0.00D+00 EMaxC= 1.00D-01 BMatC= 6.59D-07 BMatP= 5.11D-06
 IDIUse=1 WtCom= 1.00D+00 WtEn= 0.00D+00
 Coeff-Com: -0.482D-03 0.378D-02 0.833D-02 0.278D-01-0.405D-01-0.202D+00
 Coeff-Com:  0.148D+00 0.106D+01
 Coeff:     -0.482D-03 0.378D-02 0.833D-02 0.278D-01-0.405D-01-0.202D+00
 Coeff:      0.148D+00 0.106D+01
 Gap=     0.502 Goal=   None    Shift=    0.000
 RMSDP=7.56D-06 MaxDP=2.15D-04 DE=-9.94D-06 OVMax= 8.51D-04

 Cycle   9  Pass 1  IDiag  1:
 E= -279.499304019211     Delta-E=       -0.000002020710 Rises=F Damp=F
 DIIS: error= 1.60D-05 at cycle   9 NSaved=   9.
 NSaved= 9 IEnMin= 9 EnMin= -279.499304019211     IErMin= 9 ErrMin= 1.60D-05
 ErrMax= 1.60D-05  0.00D+00 EMaxC= 1.00D-01 BMatC= 7.10D-08 BMatP= 6.59D-07
 IDIUse=1 WtCom= 1.00D+00 WtEn= 0.00D+00
 Coeff-Com:  0.136D-03-0.187D-02-0.338D-02-0.304D-02 0.354D-01 0.470D-02
 Coeff-Com: -0.160D+00-0.137D+00 0.127D+01
 Coeff:      0.136D-03-0.187D-02-0.338D-02-0.304D-02 0.354D-01 0.470D-02
 Coeff:     -0.160D+00-0.137D+00 0.127D+01
 Gap=     0.502 Goal=   None    Shift=    0.000
 RMSDP=2.02D-06 MaxDP=6.88D-05 DE=-2.02D-06 OVMax= 1.77D-04

 Cycle  10  Pass 1  IDiag  1:
 E= -279.499304187028     Delta-E=       -0.000000167816 Rises=F Damp=F
 DIIS: error= 4.18D-06 at cycle  10 NSaved=  10.
 NSaved=10 IEnMin=10 EnMin= -279.499304187028     IErMin=10 ErrMin= 4.18D-06
 ErrMax= 4.18D-06  0.00D+00 EMaxC= 1.00D-01 BMatC= 5.43D-09 BMatP= 7.10D-08
 IDIUse=1 WtCom= 1.00D+00 WtEn= 0.00D+00
 Coeff-Com:  0.282D-04-0.213D-03-0.263D-03-0.249D-02 0.851D-03 0.185D-01
 Coeff-Com: -0.739D-02-0.698D-01-0.945D-01 0.116D+01
 Coeff:      0.282D-04-0.213D-03-0.263D-03-0.249D-02 0.851D-03 0.185D-01
 Coeff:     -0.739D-02-0.698D-01-0.945D-01 0.116D+01
 Gap=     0.502 Goal=   None    Shift=    0.000
 RMSDP=4.97D-07 MaxDP=2.08D-05 DE=-1.68D-07 OVMax= 3.96D-05

 Cycle  11  Pass 1  IDiag  1:
 E= -279.499304199077     Delta-E=       -0.000000012049 Rises=F Damp=F
 DIIS: error= 2.02D-06 at cycle  11 NSaved=  11.
 NSaved=11 IEnMin=11 EnMin= -279.499304199077     IErMin=11 ErrMin= 2.02D-06
 ErrMax= 2.02D-06  0.00D+00 EMaxC= 1.00D-01 BMatC= 6.39D-10 BMatP= 5.43D-09
 IDIUse=1 WtCom= 1.00D+00 WtEn= 0.00D+00
 Coeff-Com: -0.214D-04 0.248D-03 0.498D-03 0.534D-03-0.412D-02-0.362D-02
 Coeff-Com:  0.190D-01 0.317D-01-0.136D+00-0.156D+00 0.125D+01
 Coeff:     -0.214D-04 0.248D-03 0.498D-03 0.534D-03-0.412D-02-0.362D-02
 Coeff:      0.190D-01 0.317D-01-0.136D+00-0.156D+00 0.125D+01
 Gap=     0.502 Goal=   None    Shift=    0.000
 RMSDP=1.70D-07 MaxDP=6.02D-06 DE=-1.20D-08 OVMax= 1.72D-05

 Cycle  12  Pass 1  IDiag  1:
 E= -279.499304200791     Delta-E=       -0.000000001714 Rises=F Damp=F
 DIIS: error= 6.10D-07 at cycle  12 NSaved=  12.
 NSaved=12 IEnMin=12 EnMin= -279.499304200791     IErMin=12 ErrMin= 6.10D-07
 ErrMax= 6.10D-07  0.00D+00 EMaxC= 1.00D-01 BMatC= 7.56D-11 BMatP= 6.39D-10
 IDIUse=1 WtCom= 1.00D+00 WtEn= 0.00D+00
 Coeff-Com:  0.146D-05-0.319D-04-0.694D-04 0.148D-03 0.114D-02-0.223D-02
 Coeff-Com: -0.415D-02 0.488D-02 0.421D-01-0.123D+00-0.269D+00 0.135D+01
 Coeff:      0.146D-05-0.319D-04-0.694D-04 0.148D-03 0.114D-02-0.223D-02
 Coeff:     -0.415D-02 0.488D-02 0.421D-01-0.123D+00-0.269D+00 0.135D+01
 Gap=     0.502 Goal=   None    Shift=    0.000
 RMSDP=7.17D-08 MaxDP=2.80D-06 DE=-1.71D-09 OVMax= 7.07D-06

 Cycle  13  Pass 1  IDiag  1:
 E= -279.499304201031     Delta-E=       -0.000000000240 Rises=F Damp=F
 DIIS: error= 1.82D-07 at cycle  13 NSaved=  13.
 NSaved=13 IEnMin=13 EnMin= -279.499304201031     IErMin=13 ErrMin= 1.82D-07
 ErrMax= 1.82D-07  0.00D+00 EMaxC= 1.00D-01 BMatC= 4.66D-12 BMatP= 7.56D-11
 IDIUse=1 WtCom= 1.00D+00 WtEn= 0.00D+00
 Coeff-Com:  0.134D-05-0.147D-04-0.235D-04-0.898D-04 0.107D-03 0.807D-03
 Coeff-Com: -0.715D-03-0.348D-02 0.454D-03 0.447D-01-0.405D-01-0.349D+00
 Coeff-Com:  0.135D+01
 Coeff:      0.134D-05-0.147D-04-0.235D-04-0.898D-04 0.107D-03 0.807D-03
 Coeff:     -0.715D-03-0.348D-02 0.454D-03 0.447D-01-0.405D-01-0.349D+00
 Coeff:      0.135D+01
 Gap=     0.502 Goal=   None    Shift=    0.000
 RMSDP=2.05D-08 MaxDP=6.34D-07 DE=-2.40D-10 OVMax= 1.84D-06

 Cycle  14  Pass 1  IDiag  1:
 E= -279.499304201048     Delta-E=       -0.000000000017 Rises=F Damp=F
 DIIS: error= 2.79D-08 at cycle  14 NSaved=  14.
 NSaved=14 IEnMin=14 EnMin= -279.499304201048     IErMin=14 ErrMin= 2.79D-08
 ErrMax= 2.79D-08  0.00D+00 EMaxC= 1.00D-01 BMatC= 2.35D-13 BMatP= 4.66D-12
 IDIUse=1 WtCom= 1.00D+00 WtEn= 0.00D+00
 Coeff-Com: -0.223D-06 0.359D-05 0.653D-05 0.629D-05-0.895D-04 0.419D-04
 Coeff-Com:  0.278D-03 0.295D-03-0.262D-02 0.174D-02 0.180D-01-0.247D-01
 Coeff-Com: -0.213D+00 0.122D+01
 Coeff:     -0.223D-06 0.359D-05 0.653D-05 0.629D-05-0.895D-04 0.419D-04
 Coeff:      0.278D-03 0.295D-03-0.262D-02 0.174D-02 0.180D-01-0.247D-01
 Coeff:     -0.213D+00 0.122D+01
 Gap=     0.502 Goal=   None    Shift=    0.000
 RMSDP=4.14D-09 MaxDP=1.04D-07 DE=-1.72D-11 OVMax= 3.81D-07

 SCF Done:  E(RHF) =  -279.499304201     A.U. after   14 cycles
            NFock= 14  Conv=0.41D-08     -V/T= 2.0025
 KE= 2.788087867977D+02 PE=-8.938063571458D+02 EE= 2.192554012087D+02
 Leave Link  502 at Mon Feb 14 22:10:28 2022, MaxMem= 16106127360 cpu:              56.6 elap:               3.7
 (Enter /sw/contrib/gaussian/g16/B01/g16/l801.exe)
 ExpMin= 2.53D-02 ExpMax= 1.53D+04 ExpMxC= 5.22D+02 IAcc=3 IRadAn=         5 AccDes= 0.00D+00
 HarFok:  IExCor=  205 AccDes= 0.00D+00 IRadAn=         5 IDoV=-2 UseB2=F ITyADJ=14
 ICtDFT= 12500011 ScaDFX=  1.000000  1.000000  1.000000  1.000000
 Largest valence mixing into a core orbital is  2.09D-04
 Largest core mixing into a valence orbital is  3.70D-05
 Range of M.O.s used for correlation:     5   207
 NBasis=   207 NAE=    16 NBE=    16 NFC=     4 NFV=     0
 NROrb=    203 NOA=    12 NOB=    12 NVA=   191 NVB=   191

 **** Warning!!: The largest alpha MO coefficient is  0.17259003D+02

 Leave Link  801 at Mon Feb 14 22:10:28 2022, MaxMem= 16106127360 cpu:               4.2 elap:               0.2
 (Enter /sw/contrib/gaussian/g16/B01/g16/l906.exe)
 Frozen-core derivative calculation, NFC=   4 NFV=   0.
 FulOut=F Deriv=T AODrv=F NAtomX=     5
   MMem=          76  MDisk=          12 MDiskD=          12
  W3Min=      811440 MinDsk=     1524655 NBas6D=         245
 NBas2D=       30762    NTT=       30135    LW2=     3500000
    MDV= 16105579997 MDiskM=      328644 NBas2p=       30466
 Fully in-core method, ICMem=   960157634.
 IMap=   1   2   3   4   5   6   7   8   9  10  11  12  13  14  15  16
 JobTyp=1 Pass  1 fully in-core, NPsUse= 28.
 Compute canonical integrals.
 FoFCou: FMM=F IPFlag=           0 FMFlag=           0 FMFlg1=           0
         NFxFlg=           0 DoJE=F BraDBF=F KetDBF=F FulRan=T
         wScrn=  0.000000 ICntrl=       600 IOpCl=  1 I1Cent=           0 NGrid=           0
         NMat0=    1 NMatS0=  30762 NMatT0=    0 NMatD0=    1 NMtDS0=    0 NMtDT0=    0
 Symmetry not used in FoFCou.
 Spin components of T(2) and E(2):
     alpha-alpha T2 =       0.3430665061D-01 E2=     -0.1226746936D+00
     alpha-beta  T2 =       0.1885110130D+00 E2=     -0.7019697967D+00
     beta-beta   T2 =       0.3430665061D-01 E2=     -0.1226746936D+00
 The integrals were generated   1 times.
 ANorm=    0.1121215552D+01
 E2 =    -0.9473191839D+00 EUMP2 =    -0.28044662338498D+03
 Leave Link  906 at Mon Feb 14 22:10:37 2022, MaxMem= 16106127360 cpu:             242.8 elap:               8.7
 (Enter /sw/contrib/gaussian/g16/B01/g16/l1002.exe)
 Minotr:  Closed shell wavefunction.
          Computing MP2/KS-MP2 derivatives.
          Using Z-Vector for PSCF gradient.
          Skipping F1 and S1 gradient terms here.
          Frozen-core window.
          Direct CPHF calculation.
          Differentiating once with respect to electric field.
                with respect to dipole field.
          Electric field/nuclear overlap derivatives assumed to be zero.
          Using symmetry in CPHF.
          Requested convergence is 1.0D-10 RMS, and 1.0D-09 maximum.
          NewPWx=F KeepS1=T KeepF1=T KeepIn=T MapXYZ=F SortEE=F KeepMc=T.
 Keep R1 ints in memory in symmetry-blocked form, NReq=348888868.
 FoFCou: FMM=F IPFlag=           0 FMFlag=           0 FMFlg1=           0
         NFxFlg=           0 DoJE=F BraDBF=F KetDBF=F FulRan=T
         wScrn=  0.000000 ICntrl=       600 IOpCl=  0 I1Cent=           0 NGrid=           0
         NMat0=    1 NMatS0=  21528 NMatT0=    0 NMatD0=    1 NMtDS0=    0 NMtDT0=    0
 Petite list used in FoFCou.
          MDV=   16106127360 using IRadAn=       5.
          Solving linear equations separately, MaxMat=       0.
          There are     1 degrees of freedom in the 1st order CPHF.  IDoFFX=0 NUNeed=     1.
 LinEq1:  Iter=  0 NonCon=     1 RMS=6.04D-03 Max=1.32D-01 NDo=     1
 AX will form     1 AO Fock derivatives at one time.
 LinEq1:  Iter=  1 NonCon=     1 RMS=1.97D-03 Max=3.98D-02 NDo=     1
 LinEq1:  Iter=  2 NonCon=     1 RMS=9.03D-04 Max=1.46D-02 NDo=     1
 LinEq1:  Iter=  3 NonCon=     1 RMS=4.03D-04 Max=7.83D-03 NDo=     1
 LinEq1:  Iter=  4 NonCon=     1 RMS=1.25D-04 Max=1.91D-03 NDo=     1
 LinEq1:  Iter=  5 NonCon=     1 RMS=4.71D-05 Max=7.45D-04 NDo=     1
 LinEq1:  Iter=  6 NonCon=     1 RMS=2.09D-05 Max=2.43D-04 NDo=     1
 LinEq1:  Iter=  7 NonCon=     1 RMS=8.55D-06 Max=1.74D-04 NDo=     1
 LinEq1:  Iter=  8 NonCon=     1 RMS=3.61D-06 Max=3.74D-05 NDo=     1
 LinEq1:  Iter=  9 NonCon=     1 RMS=9.88D-07 Max=1.48D-05 NDo=     1
 LinEq1:  Iter= 10 NonCon=     1 RMS=1.99D-07 Max=2.25D-06 NDo=     1
 LinEq1:  Iter= 11 NonCon=     1 RMS=3.79D-08 Max=4.38D-07 NDo=     1
 LinEq1:  Iter= 12 NonCon=     1 RMS=9.13D-09 Max=1.41D-07 NDo=     1
 LinEq1:  Iter= 13 NonCon=     1 RMS=1.62D-09 Max=2.89D-08 NDo=     1
 LinEq1:  Iter= 14 NonCon=     1 RMS=2.97D-10 Max=4.42D-09 NDo=     1
 LinEq1:  Iter= 15 NonCon=     0 RMS=5.35D-11 Max=6.33D-10 NDo=     1
 Linear equations converged to 1.000D-10 1.000D-09 after    15 iterations.
 End of Minotr F.D. properties file   721 does not exist.
 End of Minotr F.D. properties file   722 does not exist.
 End of Minotr F.D. properties file   788 does not exist.
 Leave Link 1002 at Mon Feb 14 22:10:41 2022, MaxMem= 16106127360 cpu:              53.7 elap:               4.0
 (Enter /sw/contrib/gaussian/g16/B01/g16/l601.exe)
 Copying SCF densities to generalized density rwf, IOpCl= 0 IROHF=0.

 **********************************************************************

            Population analysis using the MP2 Density.

 **********************************************************************

 Orbital symmetries:
       Occupied  (A') (A') (A') (A') (A') (A') (A') (A') (A') (A')
                 (A") (A') (A") (A') (A") (A')
       Virtual   (A') (A") (A') (A') (A") (A') (A') (A') (A") (A')
                 (A") (A') (A') (A') (A") (A') (A') (A") (A') (A')
                 (A') (A') (A') (A') (A") (A') (A') (A") (A') (A')
                 (A") (A') (A") (A') (A') (A") (A') (A') (A") (A')
                 (A") (A') (A") (A') (A') (A") (A') (A') (A") (A')
                 (A") (A') (A') (A') (A") (A') (A") (A') (A") (A')
                 (A') (A') (A") (A') (A') (A") (A') (A") (A') (A')
                 (A") (A') (A') (A") (A") (A') (A') (A") (A') (A')
                 (A') (A") (A') (A") (A') (A") (A') (A") (A') (A')
                 (A") (A') (A') (A") (A') (A") (A') (A") (A') (A')
                 (A") (A') (A") (A') (A') (A") (A') (A') (A") (A')
                 (A") (A') (A') (A') (A") (A') (A') (A') (A") (A')
                 (A") (A') (A") (A') (A') (A") (A") (A') (A") (A')
                 (A') (A') (A') (A") (A") (A") (A') (A') (A') (A')
                 (A") (A') (A") (A') (A') (A") (A') (A') (A') (A')
                 (A") (A') (A') (A") (A') (A") (A') (A") (A') (A")
                 (A') (A") (A') (A') (A") (A") (A") (A') (A") (A')
                 (A") (A') (A") (A') (A") (A') (A") (A') (A") (A')
                 (A') (A') (A') (A') (A') (A') (A') (A') (A') (A')
                 (A')
 The electronic state is 1-A'.
 Alpha  occ. eigenvalues --  -20.68980 -20.68694 -20.65712 -15.81660  -1.62323
 Alpha  occ. eigenvalues --   -1.49233  -1.24745  -0.94995  -0.77096  -0.75659
 Alpha  occ. eigenvalues --   -0.70805  -0.68055  -0.62157  -0.58815  -0.48273
 Alpha  occ. eigenvalues --   -0.47135
 Alpha virt. eigenvalues --    0.03027   0.06867   0.08549   0.10144   0.13382
 Alpha virt. eigenvalues --    0.13411   0.14457   0.15499   0.17877   0.19405
 Alpha virt. eigenvalues --    0.19969   0.20291   0.22142   0.23642   0.23712
 Alpha virt. eigenvalues --    0.26541   0.28453   0.30439   0.30977   0.34170
 Alpha virt. eigenvalues --    0.34894   0.38690   0.42284   0.43245   0.52618
 Alpha virt. eigenvalues --    0.52822   0.55599   0.58036   0.62424   0.63695
 Alpha virt. eigenvalues --    0.67361   0.68450   0.70716   0.71162   0.72439
 Alpha virt. eigenvalues --    0.73104   0.74554   0.79010   0.79289   0.80940
 Alpha virt. eigenvalues --    0.81438   0.82954   0.86645   0.90820   0.92283
 Alpha virt. eigenvalues --    0.92461   0.95880   0.97426   0.98559   1.01845
 Alpha virt. eigenvalues --    1.05105   1.05359   1.08028   1.11586   1.13893
 Alpha virt. eigenvalues --    1.18829   1.22005   1.23210   1.33625   1.34606
 Alpha virt. eigenvalues --    1.38866   1.44984   1.48763   1.50981   1.53648
 Alpha virt. eigenvalues --    1.56409   1.57545   1.61208   1.66222   1.66963
 Alpha virt. eigenvalues --    1.70101   1.79295   1.83003   1.83075   1.87895
 Alpha virt. eigenvalues --    1.90725   1.95584   1.98752   2.00283   2.07053
 Alpha virt. eigenvalues --    2.11822   2.12880   2.15280   2.21990   2.26236
 Alpha virt. eigenvalues --    2.26652   2.28725   2.31371   2.33833   2.38609
 Alpha virt. eigenvalues --    2.42088   2.42335   2.45189   2.46040   2.47268
 Alpha virt. eigenvalues --    2.49782   2.59163   2.59487   2.61531   2.62267
 Alpha virt. eigenvalues --    2.63647   2.66530   2.75365   2.81344   2.84524
 Alpha virt. eigenvalues --    2.87571   2.89547   2.90467   2.95680   3.01677
 Alpha virt. eigenvalues --    3.05849   3.11530   3.20598   3.22418   3.31265
 Alpha virt. eigenvalues --    3.33541   3.51317   3.63486   3.82730   3.83940
 Alpha virt. eigenvalues --    4.14839   4.16911   4.18102   4.24770   4.35187
 Alpha virt. eigenvalues --    4.39284   4.46495   4.51618   4.65351   4.70679
 Alpha virt. eigenvalues --    4.79883   4.81017   4.83192   4.89319   5.01538
 Alpha virt. eigenvalues --    5.07067   5.09327   5.14558   5.17216   5.23688
 Alpha virt. eigenvalues --    5.26367   5.30354   5.32832   5.34552   5.59890
 Alpha virt. eigenvalues --    5.66935   5.75507   5.83068   5.94632   6.15848
 Alpha virt. eigenvalues --    6.30851   6.32896   6.39116   6.48799   6.50051
 Alpha virt. eigenvalues --    6.61285   6.66895   6.69267   6.76118   6.76350
 Alpha virt. eigenvalues --    6.82550   6.89115   7.00805   7.05322   7.05917
 Alpha virt. eigenvalues --    7.09041   7.11738   7.14343   7.18070   7.21340
 Alpha virt. eigenvalues --    7.24309   7.31166   7.32140   7.34029   7.39226
 Alpha virt. eigenvalues --    7.41976   7.47839   7.60194   7.60413   7.61388
 Alpha virt. eigenvalues --    7.65502   7.77996   7.88149   8.06637   8.30386
 Alpha virt. eigenvalues --    8.40874   8.53346  13.34507  14.27181  15.14334
 Alpha virt. eigenvalues --   16.10921
          Condensed to atoms (all electrons):
               1          2          3          4          5
     1  H    0.589981   0.128537   0.019886   0.012234  -0.000668
     2  O    0.128537   8.321846  -0.175515  -0.086601   0.014922
     3  O    0.019886  -0.175515   8.475551  -0.123045  -0.034671
     4  N    0.012234  -0.086601  -0.123045   6.951255  -0.052288
     5  O   -0.000668   0.014922  -0.034671  -0.052288   8.255786
 Mulliken charges:
               1
     1  H    0.250030
     2  O   -0.203190
     3  O   -0.162205
     4  N    0.298445
     5  O   -0.183081
 Sum of Mulliken charges =  -0.00000
 Mulliken charges with hydrogens summed into heavy atoms:
               1
     2  O    0.046840
     3  O   -0.162205
     4  N    0.298445
     5  O   -0.183081
 Electronic spatial extent (au):  <R**2>=            255.3327
 Charge=              0.0000 electrons
 Dipole moment (field-independent basis, Debye):
    X=              0.4030    Y=              1.2251    Z=             -0.0000  Tot=              1.2897
 Quadrupole moment (field-independent basis, Debye-Ang):
   XX=            -22.4293   YY=            -18.5158   ZZ=            -22.0436
   XY=              3.2999   XZ=              0.0000   YZ=              0.0000
 Traceless Quadrupole moment (field-independent basis, Debye-Ang):
   XX=             -1.4331   YY=              2.4804   ZZ=             -1.0474
   XY=              3.2999   XZ=              0.0000   YZ=              0.0000
 Octapole moment (field-independent basis, Debye-Ang**2):
  XXX=              2.4069  YYY=             11.2473  ZZZ=              0.0000  XYY=              7.8689
  XXY=              6.3858  XXZ=             -0.0000  XZZ=             -1.6167  YZZ=             -0.9443
  YYZ=             -0.0000  XYZ=             -0.0000
 Hexadecapole moment (field-independent basis, Debye-Ang**3):
 XXXX=           -158.3423 YYYY=            -92.0317 ZZZZ=            -18.3123 XXXY=            -37.4363
 XXXZ=              0.0000 YYYX=            -31.1047 YYYZ=              0.0000 ZZZX=              0.0000
 ZZZY=              0.0000 XXYY=            -34.2501 XXZZ=            -30.8601 YYZZ=            -21.1680
 XXYZ=              0.0000 YYXZ=              0.0000 ZZXY=            -15.3096
 N-N= 1.162428649383D+02 E-N=-8.946090579139D+02  KE= 2.801698101619D+02
 Symmetry A'   KE= 2.662060915457D+02
 Symmetry A"   KE= 1.396371861623D+01
 No NMR shielding tensors so no spin-rotation constants.
 Leave Link  601 at Mon Feb 14 22:10:41 2022, MaxMem= 16106127360 cpu:               4.8 elap:               0.2
 (Enter /sw/contrib/gaussian/g16/B01/g16/l9999.exe)
 1\1\GINC-N2126\SP\RMP2-FC\Aug-CC-pVTZ\H1N1O3\CGAVINH\14-Feb-2022\0\\#p
  SP mp2/aug-cc-pvtz density=current\\title\\0,1\H\O,1,0.96897556\O,2,1
 .45491931,1,97.59494903\N,3,1.482113993,2,102.29752444,1,180.,0\O,4,1.
 17072885,3,109.06955123,2,180.,0\\Version=ES64L-G16RevB.01\State=1-A'\
 HF=-279.4993042\MP2=-280.4466234\RMSD=4.137e-09\Dipole=-0.111936,0.,-0
 .4948905\Quadrupole=-1.5042308,-0.778707,2.2829378,0.,2.1330421,0.\PG=
 CS [SG(H1N1O3)]\\@


 THE WORLD OF CHEMICAL REACTIONS IS LIKE A STAGE,
 ON WHICH SCENE AFTER SCENE IS CEASELESSLY PLAYED.
 THE ACTORS ON IT ARE THE ELEMENTS.
   -- CLEMENS WINKLER   BER. 30,13(1897)
 (DISCOVERER OF GERMANIUM, FEB 6, 1886)
 Job cpu time:       0 days  0 hours  6 minutes 26.9 seconds.
 Elapsed time:       0 days  0 hours  0 minutes 17.9 seconds.
 File lengths (MBytes):  RWF=     22 Int=      0 D2E=      0 Chk=      8 Scr=      1
 Normal termination of Gaussian 16 at Mon Feb 14 22:10:41 2022.
