title                                                                   
SP        RMP2-FC                                                     Aug-CC-pVTZ         
Number of atoms                            I                5
Info1-9                                    I   N=           9
          33          24           0           0           0         110
           1           2           1
Full Title                                 C   N=           1
title       
Route                                      C   N=           4
#p SP mp2/aug-cc-pvtz density=current           
Charge                                     I                0
Multiplicity                               I                1
Number of electrons                        I               32
Number of alpha electrons                  I               16
Number of beta electrons                   I               16
Number of basis functions                  I              207
Number of independent functions            I              207
Number of point charges in /Mol/           I                0
Number of translation vectors              I                0
Atomic numbers                             I   N=           5
           1           8           8           7           8
Nuclear charges                            R   N=           5
  1.00000000E+00  8.00000000E+00  8.00000000E+00  7.00000000E+00  8.00000000E+00
Current cartesian coordinates              R   N=          15
  2.92523232E+00  3.16819517E+00  2.11754008E-30  2.74777641E+00  1.36690324E+00
  6.70935470E-31 -1.45787842E-16  1.27245844E+00  8.26885495E-31 -4.94275615E-01
 -1.43957022E+00 -5.20093682E-31 -2.68093929E+00 -1.77576214E+00 -1.73265561E-30
Number of symbols in /Mol/                 I                0
Force Field                                I                0
Atom Types                                 C   N=           5
                                                            
Int Atom Types                             I   N=           5
           0           0           0           0           0
MM charges                                 R   N=           5
  0.00000000E+00  0.00000000E+00  0.00000000E+00  0.00000000E+00  0.00000000E+00
Integer atomic weights                     I   N=           5
           1          16          16          14          16
Real atomic weights                        R   N=           5
  1.00782504E+00  1.59949146E+01  1.59949146E+01  1.40030740E+01  1.59949146E+01
Atom fragment info                         I   N=           5
           0           0           0           0           0
Atom residue num                           I   N=           5
           0           0           0           0           0
Nuclear spins                              I   N=           5
           1           0           0           2           0
Nuclear ZEff                               R   N=           5
 -1.00000000E+00 -5.60000000E+00 -5.60000000E+00 -4.55000000E+00 -5.60000000E+00
Nuclear ZNuc                               R   N=           5
  1.00000000E+00  8.00000000E+00  8.00000000E+00  7.00000000E+00  8.00000000E+00
Nuclear QMom                               R   N=           5
  0.00000000E+00  0.00000000E+00  0.00000000E+00  2.04400000E+00  0.00000000E+00
Nuclear GFac                               R   N=           5
  2.79284600E+00  0.00000000E+00  0.00000000E+00  4.03761000E-01  0.00000000E+00
MicOpt                                     I   N=           5
          -1          -1          -1          -1          -1
Number of residues                         I                0
Number of secondary structures             I                0
SymInf integers                            I   N=          26
           1           2           1           1           1           1
           1          -1           0           0           0           0
           0           0           0           0           0           0
           0           0           0           0           0           0
           0           0
RotTr to input orientation                 R   N=          12
 -9.95182348E-01  6.67395028E-16 -9.80412917E-02  9.80412917E-02 -9.20997825E-16
 -9.95182348E-01 -7.54475567E-16 -1.00000000E+00  8.51128507E-16  2.60052562E+00
  0.00000000E+00  3.43972546E+00
Number of contracted shells                I               65
Number of primitive shells                 I              119
Pure/Cartesian d shells                    I                0
Pure/Cartesian f shells                    I                0
Highest angular momentum                   I                3
Largest degree of contraction              I                7
Shell types                                I   N=          65
           0           0           0           0           1           1
           1          -2          -2           0           0           0
           0           0           1           1           1           1
          -2          -2          -2          -3          -3           0
           0           0           0           0           1           1
           1           1          -2          -2          -2          -3
          -3           0           0           0           0           0
           1           1           1           1          -2          -2
          -2          -3          -3           0           0           0
           0           0           1           1           1           1
          -2          -2          -2          -3          -3
Number of primitives per shell             I   N=          65
           3           1           1           1           1           1
           1           1           1           7           6           1
           1           1           3           1           1           1
           1           1           1           1           1           7
           6           1           1           1           3           1
           1           1           1           1           1           1
           1           7           6           1           1           1
           3           1           1           1           1           1
           1           1           1           7           6           1
           1           1           3           1           1           1
           1           1           1           1           1
Shell to atom map                          I   N=          65
           1           1           1           1           1           1
           1           1           1           2           2           2
           2           2           2           2           2           2
           2           2           2           2           2           3
           3           3           3           3           3           3
           3           3           3           3           3           3
           3           4           4           4           4           4
           4           4           4           4           4           4
           4           4           4           5           5           5
           5           5           5           5           5           5
           5           5           5           5           5
Primitive exponents                        R   N=         119
  3.38700000E+01  5.09500000E+00  1.15900000E+00  3.25800000E-01  1.02700000E-01
  2.52600000E-02  1.40700000E+00  3.88000000E-01  1.02000000E-01  1.05700000E+00
  2.47000000E-01  1.53300000E+04  2.29900000E+03  5.22400000E+02  1.47300000E+02
  4.75500000E+01  1.67600000E+01  6.20700000E+00  5.22400000E+02  1.47300000E+02
  4.75500000E+01  1.67600000E+01  6.20700000E+00  6.88200000E-01  1.75200000E+00
  2.38400000E-01  7.37600000E-02  3.44600000E+01  7.74900000E+00  2.28000000E+00
  7.15600000E-01  2.14000000E-01  5.97400000E-02  2.31400000E+00  6.45000000E-01
  2.14000000E-01  1.42800000E+00  5.00000000E-01  1.53300000E+04  2.29900000E+03
  5.22400000E+02  1.47300000E+02  4.75500000E+01  1.67600000E+01  6.20700000E+00
  5.22400000E+02  1.47300000E+02  4.75500000E+01  1.67600000E+01  6.20700000E+00
  6.88200000E-01  1.75200000E+00  2.38400000E-01  7.37600000E-02  3.44600000E+01
  7.74900000E+00  2.28000000E+00  7.15600000E-01  2.14000000E-01  5.97400000E-02
  2.31400000E+00  6.45000000E-01  2.14000000E-01  1.42800000E+00  5.00000000E-01
  1.14200000E+04  1.71200000E+03  3.89300000E+02  1.10000000E+02  3.55700000E+01
  1.25400000E+01  4.64400000E+00  3.89300000E+02  1.10000000E+02  3.55700000E+01
  1.25400000E+01  4.64400000E+00  5.11800000E-01  1.29300000E+00  1.78700000E-01
  5.76000000E-02  2.66300000E+01  5.94800000E+00  1.74200000E+00  5.55000000E-01
  1.72500000E-01  4.91000000E-02  1.65400000E+00  4.69000000E-01  1.51000000E-01
  1.09300000E+00  3.64000000E-01  1.53300000E+04  2.29900000E+03  5.22400000E+02
  1.47300000E+02  4.75500000E+01  1.67600000E+01  6.20700000E+00  5.22400000E+02
  1.47300000E+02  4.75500000E+01  1.67600000E+01  6.20700000E+00  6.88200000E-01
  1.75200000E+00  2.38400000E-01  7.37600000E-02  3.44600000E+01  7.74900000E+00
  2.28000000E+00  7.15600000E-01  2.14000000E-01  5.97400000E-02  2.31400000E+00
  6.45000000E-01  2.14000000E-01  1.42800000E+00  5.00000000E-01
Contraction coefficients                   R   N=         119
  2.54948632E-02  1.90362766E-01  8.52162022E-01  1.00000000E+00  1.00000000E+00
  1.00000000E+00  1.00000000E+00  1.00000000E+00  1.00000000E+00  1.00000000E+00
  1.00000000E+00  5.19808943E-04  4.02025621E-03  2.07128267E-02  8.10105536E-02
  2.35962985E-01  4.42653446E-01  3.57064423E-01 -4.42115008E-05 -1.22591041E-03
 -1.05517725E-02 -6.74452633E-02 -1.71198607E-01  1.07329856E+00  1.00000000E+00
  1.00000000E+00  1.00000000E+00  4.11634896E-02  2.57762836E-01  8.02419274E-01
  1.00000000E+00  1.00000000E+00  1.00000000E+00  1.00000000E+00  1.00000000E+00
  1.00000000E+00  1.00000000E+00  1.00000000E+00  5.19808943E-04  4.02025621E-03
  2.07128267E-02  8.10105536E-02  2.35962985E-01  4.42653446E-01  3.57064423E-01
 -4.42115008E-05 -1.22591041E-03 -1.05517725E-02 -6.74452633E-02 -1.71198607E-01
  1.07329856E+00  1.00000000E+00  1.00000000E+00  1.00000000E+00  4.11634896E-02
  2.57762836E-01  8.02419274E-01  1.00000000E+00  1.00000000E+00  1.00000000E+00
  1.00000000E+00  1.00000000E+00  1.00000000E+00  1.00000000E+00  1.00000000E+00
  5.34563860E-04  4.13435660E-03  2.12335358E-02  8.25006224E-02  2.38138871E-01
  4.42551547E-01  3.53757422E-01 -4.89867350E-05 -1.19527323E-03 -1.03490714E-02
 -6.48680190E-02 -1.71552477E-01  1.07289568E+00  1.00000000E+00  1.00000000E+00
  1.00000000E+00  3.98072123E-02  2.49002660E-01  8.10479727E-01  1.00000000E+00
  1.00000000E+00  1.00000000E+00  1.00000000E+00  1.00000000E+00  1.00000000E+00
  1.00000000E+00  1.00000000E+00  5.19808943E-04  4.02025621E-03  2.07128267E-02
  8.10105536E-02  2.35962985E-01  4.42653446E-01  3.57064423E-01 -4.42115008E-05
 -1.22591041E-03 -1.05517725E-02 -6.74452633E-02 -1.71198607E-01  1.07329856E+00
  1.00000000E+00  1.00000000E+00  1.00000000E+00  4.11634896E-02  2.57762836E-01
  8.02419274E-01  1.00000000E+00  1.00000000E+00  1.00000000E+00  1.00000000E+00
  1.00000000E+00  1.00000000E+00  1.00000000E+00  1.00000000E+00
Coordinates of each shell                  R   N=         195
  2.92523232E+00  3.16819517E+00  8.73324264E-31  2.92523232E+00  3.16819517E+00
  8.73324264E-31  2.92523232E+00  3.16819517E+00  8.73324264E-31  2.92523232E+00
  3.16819517E+00  8.73324264E-31  2.92523232E+00  3.16819517E+00  8.73324264E-31
  2.92523232E+00  3.16819517E+00  8.73324264E-31  2.92523232E+00  3.16819517E+00
  8.73324264E-31  2.92523232E+00  3.16819517E+00  8.73324264E-31  2.92523232E+00
  3.16819517E+00  8.73324264E-31  2.74777641E+00  1.36690324E+00  3.46630645E-31
  2.74777641E+00  1.36690324E+00  3.46630645E-31  2.74777641E+00  1.36690324E+00
  3.46630645E-31  2.74777641E+00  1.36690324E+00  3.46630645E-31  2.74777641E+00
  1.36690324E+00  3.46630645E-31  2.74777641E+00  1.36690324E+00  3.46630645E-31
  2.74777641E+00  1.36690324E+00  3.46630645E-31  2.74777641E+00  1.36690324E+00
  3.46630645E-31  2.74777641E+00  1.36690324E+00  3.46630645E-31  2.74777641E+00
  1.36690324E+00  3.46630645E-31  2.74777641E+00  1.36690324E+00  3.46630645E-31
  2.74777641E+00  1.36690324E+00  3.46630645E-31  2.74777641E+00  1.36690324E+00
  3.46630645E-31  2.74777641E+00  1.36690324E+00  3.46630645E-31  1.23027714E-17
  1.27245844E+00  3.74608798E-31  1.23027714E-17  1.27245844E+00  3.74608798E-31
  1.23027714E-17  1.27245844E+00  3.74608798E-31  1.23027714E-17  1.27245844E+00
  3.74608798E-31  1.23027714E-17  1.27245844E+00  3.74608798E-31  1.23027714E-17
  1.27245844E+00  3.74608798E-31  1.23027714E-17  1.27245844E+00  3.74608798E-31
  1.23027714E-17  1.27245844E+00  3.74608798E-31  1.23027714E-17  1.27245844E+00
  3.74608798E-31  1.23027714E-17  1.27245844E+00  3.74608798E-31  1.23027714E-17
  1.27245844E+00  3.74608798E-31  1.23027714E-17  1.27245844E+00  3.74608798E-31
  1.23027714E-17  1.27245844E+00  3.74608798E-31  1.23027714E-17  1.27245844E+00
  3.74608798E-31 -4.94275615E-01 -1.43957022E+00 -4.13771848E-31 -4.94275615E-01
 -1.43957022E+00 -4.13771848E-31 -4.94275615E-01 -1.43957022E+00 -4.13771848E-31
 -4.94275615E-01 -1.43957022E+00 -4.13771848E-31 -4.94275615E-01 -1.43957022E+00
 -4.13771848E-31 -4.94275615E-01 -1.43957022E+00 -4.13771848E-31 -4.94275615E-01
 -1.43957022E+00 -4.13771848E-31 -4.94275615E-01 -1.43957022E+00 -4.13771848E-31
 -4.94275615E-01 -1.43957022E+00 -4.13771848E-31 -4.94275615E-01 -1.43957022E+00
 -4.13771848E-31 -4.94275615E-01 -1.43957022E+00 -4.13771848E-31 -4.94275615E-01
 -1.43957022E+00 -4.13771848E-31 -4.94275615E-01 -1.43957022E+00 -4.13771848E-31
 -4.94275615E-01 -1.43957022E+00 -4.13771848E-31 -2.68093929E+00 -1.77576214E+00
 -4.68354609E-31 -2.68093929E+00 -1.77576214E+00 -4.68354609E-31 -2.68093929E+00
 -1.77576214E+00 -4.68354609E-31 -2.68093929E+00 -1.77576214E+00 -4.68354609E-31
 -2.68093929E+00 -1.77576214E+00 -4.68354609E-31 -2.68093929E+00 -1.77576214E+00
 -4.68354609E-31 -2.68093929E+00 -1.77576214E+00 -4.68354609E-31 -2.68093929E+00
 -1.77576214E+00 -4.68354609E-31 -2.68093929E+00 -1.77576214E+00 -4.68354609E-31
 -2.68093929E+00 -1.77576214E+00 -4.68354609E-31 -2.68093929E+00 -1.77576214E+00
 -4.68354609E-31 -2.68093929E+00 -1.77576214E+00 -4.68354609E-31 -2.68093929E+00
 -1.77576214E+00 -4.68354609E-31 -2.68093929E+00 -1.77576214E+00 -4.68354609E-31
Num ILSW                                   I              100
ILSW                                       I   N=         100
           0           0           0           0           2           0
           0           0           0           0           0          -1
           5           0           0           0           0           0
           0           0           0           0           0           0
           1           0           0           0           0           0
           0           0      100000           0          -1           0
           0           0           0           0           0           0
           0           0           0           1           0           0
           0 -2000000000           1           0           0           0
           0           0           4          52           0           0
           0           0           0           0           0           0
           0           0           0           5           0           1
           0           0           0           0           0           0
           0           0           0           0           0           0
           0           0           0           0           0           0
           0           0           0           0           0           0
           0           0           0           0
Num RLSW                                   I               52
RLSW                                       R   N=          52
  1.00000000E+00  1.00000000E+00  1.00000000E+00  1.00000000E+00  1.00000000E+00
  0.00000000E+00  0.00000000E+00  1.00000000E+00  0.00000000E+00  0.00000000E+00
  0.00000000E+00  0.00000000E+00  1.00000000E+00  0.00000000E+00  0.00000000E+00
  0.00000000E+00  0.00000000E+00  1.00000000E+00  0.00000000E+00  0.00000000E+00
  0.00000000E+00  0.00000000E+00  1.00000000E+00  0.00000000E+00  0.00000000E+00
  0.00000000E+00  0.00000000E+00  1.00000000E+00  0.00000000E+00  0.00000000E+00
  0.00000000E+00  0.00000000E+00  1.00000000E+00  0.00000000E+00  0.00000000E+00
  0.00000000E+00  0.00000000E+00  0.00000000E+00  1.00000000E+00  1.00000000E+00
  0.00000000E+00  1.00000000E+00  0.00000000E+00  0.00000000E+00  0.00000000E+00
  0.00000000E+00  0.00000000E+00  0.00000000E+00  0.00000000E+00  0.00000000E+00
  0.00000000E+00  0.00000000E+00
MxBond                                     I                2
NBond                                      I   N=           5
           1           2           2           2           1
IBond                                      I   N=          10
           2           0           1           3           2           4
           3           5           4           0
RBond                                      R   N=          10
  1.00000000E+00  0.00000000E+00  1.00000000E+00  1.00000000E+00  1.00000000E+00
  1.00000000E+00  1.00000000E+00  2.00000000E+00  2.00000000E+00  0.00000000E+00
Virial Ratio                               R      2.002278531834673E+00
SCF Energy                                 R     -2.795021032270553E+02
MP2 Energy                                 R     -2.804466179383219E+02
Total Energy                               R     -2.804466179383219E+02
Post-SCF wavefunction norm                 R      1.120030671102977E+00
RMS Density                                R      3.787976946654554E-09
Job Status                                 I                1
Nuclear derivative order                   I                0
External E-field                           R   N=          35
  0.00000000E+00  0.00000000E+00  0.00000000E+00  0.00000000E+00  0.00000000E+00
  0.00000000E+00  0.00000000E+00  0.00000000E+00  0.00000000E+00  0.00000000E+00
  0.00000000E+00  0.00000000E+00  0.00000000E+00  0.00000000E+00  0.00000000E+00
  0.00000000E+00  0.00000000E+00  0.00000000E+00  0.00000000E+00  0.00000000E+00
  0.00000000E+00  0.00000000E+00  0.00000000E+00  0.00000000E+00  0.00000000E+00
  0.00000000E+00  0.00000000E+00  0.00000000E+00  0.00000000E+00  0.00000000E+00
  0.00000000E+00  0.00000000E+00  0.00000000E+00  0.00000000E+00  0.00000000E+00
IOpCl                                      I                0
IROHF                                      I                0
Alpha Orbital Energies                     R   N=         207
 -2.06911859E+01 -2.06845127E+01 -2.06591003E+01 -1.58130664E+01 -1.62429367E+00
 -1.49714841E+00 -1.25661856E+00 -9.48327203E-01 -7.73741185E-01 -7.60067213E-01
 -7.12058517E-01 -6.81062391E-01 -6.20792915E-01 -5.89964761E-01 -4.85610298E-01
 -4.72806927E-01  2.98356332E-02  7.15007347E-02  8.58944574E-02  1.01687980E-01
  1.33873479E-01  1.33929289E-01  1.44526984E-01  1.54956838E-01  1.78094650E-01
  1.94144019E-01  1.99770305E-01  2.06369117E-01  2.20775407E-01  2.35111559E-01
  2.37274559E-01  2.66312040E-01  2.93632944E-01  3.04395440E-01  3.10887061E-01
  3.43339714E-01  3.49127108E-01  3.87359601E-01  4.23276733E-01  4.33244059E-01
  5.27249149E-01  5.29098281E-01  5.58464285E-01  5.81470073E-01  6.25818183E-01
  6.38267857E-01  6.74318634E-01  6.85486475E-01  7.06345363E-01  7.11560779E-01
  7.25042481E-01  7.29456632E-01  7.44892694E-01  7.91251302E-01  7.92202669E-01
  8.10485589E-01  8.12587774E-01  8.30742447E-01  8.68069736E-01  9.08060112E-01
  9.22501830E-01  9.26483886E-01  9.57518059E-01  9.76180887E-01  9.86134415E-01
  1.01878443E+00  1.05147354E+00  1.05486266E+00  1.08337221E+00  1.11939594E+00
  1.14251536E+00  1.18910960E+00  1.22145841E+00  1.23482319E+00  1.33851111E+00
  1.34986688E+00  1.38605912E+00  1.45660927E+00  1.49088195E+00  1.51087903E+00
  1.53772089E+00  1.56697812E+00  1.57903890E+00  1.61457988E+00  1.66315761E+00
  1.66908411E+00  1.70337644E+00  1.79346588E+00  1.83164688E+00  1.83445591E+00
  1.87792572E+00  1.91123486E+00  1.96197671E+00  1.99256086E+00  2.00795249E+00
  2.07781906E+00  2.12228220E+00  2.13187578E+00  2.14984218E+00  2.22503687E+00
  2.26338020E+00  2.26538748E+00  2.28959862E+00  2.31548023E+00  2.34465691E+00
  2.38836302E+00  2.42451436E+00  2.42976116E+00  2.45409100E+00  2.46301631E+00
  2.47727133E+00  2.50208231E+00  2.58528371E+00  2.59703171E+00  2.62044402E+00
  2.62609311E+00  2.63423061E+00  2.66591220E+00  2.75750079E+00  2.82126304E+00
  2.85612220E+00  2.88479702E+00  2.89365342E+00  2.92521214E+00  2.95775796E+00
  3.02699216E+00  3.06888108E+00  3.12014128E+00  3.20435183E+00  3.22755161E+00
  3.31822521E+00  3.34278102E+00  3.51658396E+00  3.64773932E+00  3.83857650E+00
  3.85677939E+00  4.15876655E+00  4.16687412E+00  4.18636759E+00  4.25871496E+00
  4.36132746E+00  4.39561465E+00  4.46699826E+00  4.52332312E+00  4.66297958E+00
  4.71492723E+00  4.80634001E+00  4.82427694E+00  4.84779924E+00  4.89596332E+00
  5.02320348E+00  5.07754067E+00  5.11310490E+00  5.15129606E+00  5.18528692E+00
  5.25906142E+00  5.27531544E+00  5.31078796E+00  5.35704786E+00  5.35815840E+00
  5.61234239E+00  5.67362158E+00  5.77259039E+00  5.83516342E+00  5.95865291E+00
  6.16620990E+00  6.30900262E+00  6.33658715E+00  6.39725034E+00  6.49359336E+00
  6.50540885E+00  6.61554645E+00  6.66692972E+00  6.69971673E+00  6.75717561E+00
  6.76312868E+00  6.83295981E+00  6.89822384E+00  7.02004217E+00  7.05748414E+00
  7.05855039E+00  7.09124858E+00  7.12663014E+00  7.15214909E+00  7.18167323E+00
  7.22788448E+00  7.26163678E+00  7.31837849E+00  7.32563970E+00  7.35115270E+00
  7.39889088E+00  7.43348352E+00  7.48445102E+00  7.60877292E+00  7.62027253E+00
  7.62913709E+00  7.66944814E+00  7.80245046E+00  7.88723344E+00  8.09766458E+00
  8.31789009E+00  8.42351391E+00  8.54829040E+00  1.33940675E+01  1.44041017E+01
  1.53281156E+01  1.61523807E+01
Alpha MO coefficients                      R   N=       42849
  9.32116680E-05 -6.43198058E-04 -7.34885487E-04 -4.86150532E-06 -2.03759967E-05
 -2.59644480E-05  0.00000000E+00 -6.75690443E-05  4.85737190E-05  0.00000000E+00
  7.05977891E-05  3.18342490E-05  0.00000000E+00  3.21456848E-05  0.00000000E+00
  0.00000000E+00 -5.08747803E-05  2.35467964E-05 -7.19575244E-06  0.00000000E+00
  0.00000000E+00 -1.41056414E-04  1.31135566E-04  4.41020770E-03 -2.84736234E-04
  6.58605233E-06  1.55424141E-03  1.83739051E-03  1.06480946E-04  7.32696719E-06
  0.00000000E+00 -6.17235875E-04 -4.10939282E-05  0.00000000E+00 -1.07104456E-03
  8.01808185E-04  0.00000000E+00 -3.98297291E-04  7.35566718E-05  0.00000000E+00
  2.92276310E-05  0.00000000E+00  0.00000000E+00 -5.41705100E-05  5.12029324E-06
 -3.79391194E-04  0.00000000E+00  0.00000000E+00  7.44303416E-04 -2.68524976E-05
 -4.46742607E-04  0.00000000E+00  0.00000000E+00  2.41560559E-04 -5.51449061E-06
  0.00000000E+00  8.04444734E-05  1.28382668E-05  0.00000000E+00  0.00000000E+00
 -1.09420868E-04 -3.11206155E-06  0.00000000E+00  2.53115165E-04 -2.88282449E-05
  0.00000000E+00  0.00000000E+00 -3.58879270E-04  5.26354256E-05  9.76911888E-01
 -9.21709475E-03  4.33189407E-02  2.04412891E-03 -9.22299074E-04  1.49530722E-03
 -1.35465312E-03  0.00000000E+00 -1.43830490E-03  1.38336512E-03  0.00000000E+00
  8.20754664E-05 -1.16291144E-03  0.00000000E+00 -1.45300512E-04 -2.26335765E-05
  0.00000000E+00  4.63154488E-05  0.00000000E+00  0.00000000E+00 -3.52497869E-05
  2.15782825E-05  7.47792532E-04  0.00000000E+00  0.00000000E+00 -2.34590388E-04
 -3.89876910E-04 -3.59270683E-04  0.00000000E+00  0.00000000E+00 -3.13724932E-04
 -3.74539317E-04  0.00000000E+00  4.74620914E-05 -4.90761970E-05  0.00000000E+00
  0.00000000E+00 -3.91312555E-05 -1.56766138E-05  0.00000000E+00  2.40739947E-05
  2.25809849E-05  0.00000000E+00  0.00000000E+00 -3.05924862E-04 -1.40416173E-04
  3.90113058E-05  4.57251841E-05 -2.64174978E-04 -6.98900152E-04 -1.40733438E-04
 -2.67723929E-05 -9.73753544E-05  0.00000000E+00  2.66662397E-04  7.08234049E-04
  0.00000000E+00 -8.33430891E-04 -4.75615248E-04  0.00000000E+00 -1.20350963E-04
 -2.60107612E-05  0.00000000E+00 -1.81470379E-05  0.00000000E+00  0.00000000E+00
 -2.95658382E-05  1.49564013E-05 -3.28684197E-04  0.00000000E+00  0.00000000E+00
 -8.27178356E-04  1.27429629E-04 -3.74232354E-05  0.00000000E+00  0.00000000E+00
  9.77220311E-05 -1.15528919E-04  0.00000000E+00 -2.03383042E-05 -1.19866537E-04
  0.00000000E+00  0.00000000E+00 -6.26730919E-05 -1.38126619E-04  0.00000000E+00
  1.65894550E-06 -1.53366878E-04  0.00000000E+00  0.00000000E+00  4.35497314E-05
 -4.15822008E-04 -2.54043644E-03  1.22133919E-04 -1.21597404E-04 -2.47772584E-04
  1.29715596E-04 -7.75749361E-06 -2.75829990E-05  0.00000000E+00  6.83483841E-05
  1.62642163E-04  0.00000000E+00  2.30564651E-04  1.98070428E-04  0.00000000E+00
  1.24902529E-04  2.11826902E-05  0.00000000E+00 -3.30531430E-06  0.00000000E+00
  0.00000000E+00 -1.78681080E-05  1.30096453E-06  8.77716762E-07  0.00000000E+00
  0.00000000E+00  7.95296202E-05  8.68638927E-05 -9.96458632E-05  0.00000000E+00
  0.00000000E+00  1.65818619E-04  1.60648383E-04  0.00000000E+00  1.59544077E-05
 -3.53146081E-06  0.00000000E+00  0.00000000E+00 -4.39812544E-06 -1.19678749E-05
  0.00000000E+00 -3.36285444E-05  4.54245210E-05  0.00000000E+00  0.00000000E+00
  8.32944864E-05  8.97911953E-05  3.85519022E-05 -1.01353321E-03 -5.05509931E-04
 -1.12960145E-05 -2.24582296E-05  1.73029633E-05  0.00000000E+00 -2.12117976E-06
  2.74639763E-04  0.00000000E+00 -4.29441926E-05  1.35955667E-04  0.00000000E+00
  2.62385129E-05  0.00000000E+00  0.00000000E+00  1.19895360E-05  1.09133798E-05
 -2.87275675E-05  0.00000000E+00  0.00000000E+00  1.05997466E-05  3.64459060E-05
  1.08419620E-04  8.58881127E-05 -2.78656165E-05  7.77072270E-04  6.70175143E-04
  1.02294167E-05  2.50864284E-06  0.00000000E+00 -7.22391516E-05  1.84240704E-05
  0.00000000E+00  3.37546275E-04  9.15786611E-04  0.00000000E+00  2.66941291E-06
  8.33547711E-05  0.00000000E+00 -2.32320945E-06  0.00000000E+00  0.00000000E+00
 -3.47631378E-07 -6.08607932E-06 -3.62546393E-05  0.00000000E+00  0.00000000E+00
 -1.95078414E-05  8.46437184E-05 -2.36560400E-05  0.00000000E+00  0.00000000E+00
 -2.69700779E-04 -1.62782860E-04  0.00000000E+00  9.16826387E-06  5.97557216E-06
  0.00000000E+00  0.00000000E+00  2.57367405E-06 -1.86494316E-05  0.00000000E+00
 -4.04566947E-05 -3.80546253E-05  0.00000000E+00  0.00000000E+00 -7.72860754E-05
  2.07267868E-05  2.57943112E-03  3.94241302E-05  8.97655638E-05 -6.93819139E-05
 -4.70124683E-04  7.31488181E-06  1.58636179E-05  0.00000000E+00 -6.26793977E-05
 -5.57086693E-05  0.00000000E+00  2.34216163E-04 -1.89679681E-04  0.00000000E+00
 -1.89056560E-04 -6.52212112E-05  0.00000000E+00 -8.71473783E-06  0.00000000E+00
  0.00000000E+00  2.24007750E-05  1.98113960E-05  4.50343167E-06  0.00000000E+00
  0.00000000E+00 -1.17677274E-04 -4.67310475E-05 -4.11865710E-06  0.00000000E+00
  0.00000000E+00 -2.22925230E-04 -2.07107281E-04  0.00000000E+00  3.29741715E-06
 -5.33778801E-07  0.00000000E+00  0.00000000E+00  1.72085613E-06 -1.36298158E-05
  0.00000000E+00 -4.65537130E-05  3.46667856E-06  0.00000000E+00  0.00000000E+00
 -7.66257614E-05  1.88011184E-04  2.58701725E-04  1.46524987E-03 -7.79830524E-05
 -1.53919737E-03  3.93912439E-04 -1.44430380E-04  1.52184390E-07  0.00000000E+00
 -2.09028893E-03 -4.04242826E-04  0.00000000E+00  1.03960909E-03  7.62659605E-04
  0.00000000E+00 -1.71373038E-04  5.39536619E-05  0.00000000E+00 -1.23350890E-04
  0.00000000E+00  0.00000000E+00  2.43121802E-04  9.40745392E-05 -4.42402179E-04
  0.00000000E+00  0.00000000E+00  8.99134890E-04 -6.61418691E-05  1.16062805E-05
  0.00000000E+00  0.00000000E+00 -3.38284966E-04 -1.22773441E-04  0.00000000E+00
 -1.24991673E-06  1.52974321E-05  0.00000000E+00  0.00000000E+00  1.88365186E-05
  1.32910072E-05  0.00000000E+00  1.64516583E-04 -7.18719826E-05  0.00000000E+00
  0.00000000E+00 -2.40539734E-04  4.24887189E-05  9.76649460E-01 -9.84826000E-03
  4.35679707E-02  4.50132458E-03 -4.45269609E-04  2.14824535E-03  4.81170197E-04
  0.00000000E+00 -2.38423289E-03 -6.04196666E-04  0.00000000E+00  1.13899644E-03
 -3.20349420E-06  0.00000000E+00  5.03455892E-06 -4.16873083E-05  0.00000000E+00
 -2.32364473E-04  0.00000000E+00  0.00000000E+00  1.02750592E-04  3.18559725E-05
  3.90674467E-04  0.00000000E+00  0.00000000E+00 -8.34176814E-04 -4.19429151E-04
 -1.53477165E-04  0.00000000E+00  0.00000000E+00  2.55689359E-04  1.70487363E-05
  0.00000000E+00  5.22730785E-05  1.77109745E-05  0.00000000E+00  0.00000000E+00
 -2.21269599E-05 -1.32913007E-05  0.00000000E+00  1.38410365E-04  9.24610620E-06
  0.00000000E+00  0.00000000E+00 -1.89863814E-04 -1.40729304E-04  4.98590424E-04
  1.79727689E-03 -4.97238804E-05  7.86893892E-06 -4.04216316E-05 -2.11760350E-04
  0.00000000E+00  1.23633899E-04 -1.14605979E-03  0.00000000E+00  3.17214792E-04
 -2.92134203E-04  0.00000000E+00  2.13136954E-05  0.00000000E+00  0.00000000E+00
  1.18534303E-04  1.04400219E-05 -1.53437832E-04  0.00000000E+00  0.00000000E+00
 -5.27576147E-04 -2.33229040E-05  9.76825975E-01 -9.12809508E-03  4.34616771E-02
  3.80273670E-04 -9.99954134E-04 -1.56105471E-03  1.44377640E-03  0.00000000E+00
  1.58273516E-03 -1.20313424E-03  0.00000000E+00 -5.29009351E-04 -7.12566241E-04
  0.00000000E+00  4.76929837E-05 -1.34664315E-05  0.00000000E+00  2.31086714E-05
  0.00000000E+00  0.00000000E+00 -1.27834237E-04 -1.73807022E-06  7.39079962E-04
  0.00000000E+00  0.00000000E+00 -2.37171766E-04 -2.24194556E-04 -2.80095904E-04
  0.00000000E+00  0.00000000E+00  1.35106041E-04  1.32483983E-04  0.00000000E+00
 -6.49649601E-05 -5.98111654E-06  0.00000000E+00  0.00000000E+00  1.52914977E-05
 -5.49835093E-08  0.00000000E+00 -3.14711842E-06  1.23501710E-04  0.00000000E+00
  0.00000000E+00  2.55784044E-04  9.21136128E-05 -4.50376741E-03 -2.16497305E-04