title                                                                   
SP        RMP2-FC                                                     Aug-CC-pVTZ         
Number of atoms                            I                5
Info1-9                                    I   N=           9
          33          24           0           0           0         110
           1           2           1
Full Title                                 C   N=           1
title       
Route                                      C   N=           4
#p SP mp2/aug-cc-pvtz density=current           
Charge                                     I                0
Multiplicity                               I                1
Number of electrons                        I               32
Number of alpha electrons                  I               16
Number of beta electrons                   I               16
Number of basis functions                  I              207
Number of independent functions            I              207
Number of point charges in /Mol/           I                0
Number of translation vectors              I                0
Atomic numbers                             I   N=           5
           1           8           8           7           8
Nuclear charges                            R   N=           5
  1.00000000E+00  8.00000000E+00  8.00000000E+00  7.00000000E+00  8.00000000E+00
Current cartesian coordinates              R   N=          15
  2.98913362E+00  3.17748048E+00 -9.85610187E-32  2.74791495E+00  1.36233999E+00
 -5.33944697E-32  1.31069278E-16  1.27201587E+00 -6.68658586E-33 -4.98342020E-01
 -1.43926853E+00  2.38669069E-32 -2.68550739E+00 -1.77218095E+00  1.01694407E-31
Number of symbols in /Mol/                 I                0
Force Field                                I                0
Atom Types                                 C   N=           5
                                                            
Int Atom Types                             I   N=           5
           0           0           0           0           0
MM charges                                 R   N=           5
  0.00000000E+00  0.00000000E+00  0.00000000E+00  0.00000000E+00  0.00000000E+00
Integer atomic weights                     I   N=           5
           1          16          16          14          16
Real atomic weights                        R   N=           5
  1.00782504E+00  1.59949146E+01  1.59949146E+01  1.40030740E+01  1.59949146E+01
Atom fragment info                         I   N=           5
           0           0           0           0           0
Atom residue num                           I   N=           5
           0           0           0           0           0
Nuclear spins                              I   N=           5
           1           0           0           2           0
Nuclear ZEff                               R   N=           5
 -1.00000000E+00 -5.60000000E+00 -5.60000000E+00 -4.55000000E+00 -5.60000000E+00
Nuclear ZNuc                               R   N=           5
  1.00000000E+00  8.00000000E+00  8.00000000E+00  7.00000000E+00  8.00000000E+00
Nuclear QMom                               R   N=           5
  0.00000000E+00  0.00000000E+00  0.00000000E+00  2.04400000E+00  0.00000000E+00
Nuclear GFac                               R   N=           5
  2.79284600E+00  0.00000000E+00  0.00000000E+00  4.03761000E-01  0.00000000E+00
MicOpt                                     I   N=           5
          -1          -1          -1          -1          -1
Number of residues                         I                0
Number of secondary structures             I                0
SymInf integers                            I   N=          26
           1           2           1           1           1           1
           1          -1           0           0           0           0
           0           0           0           0           0           0
           0           0           0           0           0           0
           0           0
RotTr to input orientation                 R   N=          12
 -9.91285047E-01 -9.86035789E-17 -1.31734411E-01  1.31734411E-01 -7.26287275E-17
 -9.91285047E-01  8.81765508E-17 -1.00000000E+00  8.49852559E-17  2.54449995E+00
  0.00000000E+00  3.54356065E+00
Number of contracted shells                I               65
Number of primitive shells                 I              119
Pure/Cartesian d shells                    I                0
Pure/Cartesian f shells                    I                0
Highest angular momentum                   I                3
Largest degree of contraction              I                7
Shell types                                I   N=          65
           0           0           0           0           1           1
           1          -2          -2           0           0           0
           0           0           1           1           1           1
          -2          -2          -2          -3          -3           0
           0           0           0           0           1           1
           1           1          -2          -2          -2          -3
          -3           0           0           0           0           0
           1           1           1           1          -2          -2
          -2          -3          -3           0           0           0
           0           0           1           1           1           1
          -2          -2          -2          -3          -3
Number of primitives per shell             I   N=          65
           3           1           1           1           1           1
           1           1           1           7           6           1
           1           1           3           1           1           1
           1           1           1           1           1           7
           6           1           1           1           3           1
           1           1           1           1           1           1
           1           7           6           1           1           1
           3           1           1           1           1           1
           1           1           1           7           6           1
           1           1           3           1           1           1
           1           1           1           1           1
Shell to atom map                          I   N=          65
           1           1           1           1           1           1
           1           1           1           2           2           2
           2           2           2           2           2           2
           2           2           2           2           2           3
           3           3           3           3           3           3
           3           3           3           3           3           3
           3           4           4           4           4           4
           4           4           4           4           4           4
           4           4           4           5           5           5
           5           5           5           5           5           5
           5           5           5           5           5
Primitive exponents                        R   N=         119
  3.38700000E+01  5.09500000E+00  1.15900000E+00  3.25800000E-01  1.02700000E-01
  2.52600000E-02  1.40700000E+00  3.88000000E-01  1.02000000E-01  1.05700000E+00
  2.47000000E-01  1.53300000E+04  2.29900000E+03  5.22400000E+02  1.47300000E+02
  4.75500000E+01  1.67600000E+01  6.20700000E+00  5.22400000E+02  1.47300000E+02
  4.75500000E+01  1.67600000E+01  6.20700000E+00  6.88200000E-01  1.75200000E+00
  2.38400000E-01  7.37600000E-02  3.44600000E+01  7.74900000E+00  2.28000000E+00
  7.15600000E-01  2.14000000E-01  5.97400000E-02  2.31400000E+00  6.45000000E-01
  2.14000000E-01  1.42800000E+00  5.00000000E-01  1.53300000E+04  2.29900000E+03
  5.22400000E+02  1.47300000E+02  4.75500000E+01  1.67600000E+01  6.20700000E+00
  5.22400000E+02  1.47300000E+02  4.75500000E+01  1.67600000E+01  6.20700000E+00
  6.88200000E-01  1.75200000E+00  2.38400000E-01  7.37600000E-02  3.44600000E+01
  7.74900000E+00  2.28000000E+00  7.15600000E-01  2.14000000E-01  5.97400000E-02
  2.31400000E+00  6.45000000E-01  2.14000000E-01  1.42800000E+00  5.00000000E-01
  1.14200000E+04  1.71200000E+03  3.89300000E+02  1.10000000E+02  3.55700000E+01
  1.25400000E+01  4.64400000E+00  3.89300000E+02  1.10000000E+02  3.55700000E+01
  1.25400000E+01  4.64400000E+00  5.11800000E-01  1.29300000E+00  1.78700000E-01
  5.76000000E-02  2.66300000E+01  5.94800000E+00  1.74200000E+00  5.55000000E-01
  1.72500000E-01  4.91000000E-02  1.65400000E+00  4.69000000E-01  1.51000000E-01
  1.09300000E+00  3.64000000E-01  1.53300000E+04  2.29900000E+03  5.22400000E+02
  1.47300000E+02  4.75500000E+01  1.67600000E+01  6.20700000E+00  5.22400000E+02
  1.47300000E+02  4.75500000E+01  1.67600000E+01  6.20700000E+00  6.88200000E-01
  1.75200000E+00  2.38400000E-01  7.37600000E-02  3.44600000E+01  7.74900000E+00
  2.28000000E+00  7.15600000E-01  2.14000000E-01  5.97400000E-02  2.31400000E+00
  6.45000000E-01  2.14000000E-01  1.42800000E+00  5.00000000E-01
Contraction coefficients                   R   N=         119
  2.54948632E-02  1.90362766E-01  8.52162022E-01  1.00000000E+00  1.00000000E+00
  1.00000000E+00  1.00000000E+00  1.00000000E+00  1.00000000E+00  1.00000000E+00
  1.00000000E+00  5.19808943E-04  4.02025621E-03  2.07128267E-02  8.10105536E-02
  2.35962985E-01  4.42653446E-01  3.57064423E-01 -4.42115008E-05 -1.22591041E-03
 -1.05517725E-02 -6.74452633E-02 -1.71198607E-01  1.07329856E+00  1.00000000E+00
  1.00000000E+00  1.00000000E+00  4.11634896E-02  2.57762836E-01  8.02419274E-01
  1.00000000E+00  1.00000000E+00  1.00000000E+00  1.00000000E+00  1.00000000E+00
  1.00000000E+00  1.00000000E+00  1.00000000E+00  5.19808943E-04  4.02025621E-03
  2.07128267E-02  8.10105536E-02  2.35962985E-01  4.42653446E-01  3.57064423E-01
 -4.42115008E-05 -1.22591041E-03 -1.05517725E-02 -6.74452633E-02 -1.71198607E-01
  1.07329856E+00  1.00000000E+00  1.00000000E+00  1.00000000E+00  4.11634896E-02
  2.57762836E-01  8.02419274E-01  1.00000000E+00  1.00000000E+00  1.00000000E+00
  1.00000000E+00  1.00000000E+00  1.00000000E+00  1.00000000E+00  1.00000000E+00
  5.34563860E-04  4.13435660E-03  2.12335358E-02  8.25006224E-02  2.38138871E-01
  4.42551547E-01  3.53757422E-01 -4.89867350E-05 -1.19527323E-03 -1.03490714E-02
 -6.48680190E-02 -1.71552477E-01  1.07289568E+00  1.00000000E+00  1.00000000E+00
  1.00000000E+00  3.98072123E-02  2.49002660E-01  8.10479727E-01  1.00000000E+00
  1.00000000E+00  1.00000000E+00  1.00000000E+00  1.00000000E+00  1.00000000E+00
  1.00000000E+00  1.00000000E+00  5.19808943E-04  4.02025621E-03  2.07128267E-02
  8.10105536E-02  2.35962985E-01  4.42653446E-01  3.57064423E-01 -4.42115008E-05
 -1.22591041E-03 -1.05517725E-02 -6.74452633E-02 -1.71198607E-01  1.07329856E+00
  1.00000000E+00  1.00000000E+00  1.00000000E+00  4.11634896E-02  2.57762836E-01
  8.02419274E-01  1.00000000E+00  1.00000000E+00  1.00000000E+00  1.00000000E+00
  1.00000000E+00  1.00000000E+00  1.00000000E+00  1.00000000E+00
Coordinates of each shell                  R   N=         195
  2.98913362E+00  3.17748048E+00 -7.36878330E-32  2.98913362E+00  3.17748048E+00
 -7.36878330E-32  2.98913362E+00  3.17748048E+00 -7.36878330E-32  2.98913362E+00
  3.17748048E+00 -7.36878330E-32  2.98913362E+00  3.17748048E+00 -7.36878330E-32
  2.98913362E+00  3.17748048E+00 -7.36878330E-32  2.98913362E+00  3.17748048E+00
 -7.36878330E-32  2.98913362E+00  3.17748048E+00 -7.36878330E-32  2.98913362E+00
  3.17748048E+00 -7.36878330E-32  2.74791495E+00  1.36233999E+00 -6.77413336E-32
  2.74791495E+00  1.36233999E+00 -6.77413336E-32  2.74791495E+00  1.36233999E+00
 -6.77413336E-32  2.74791495E+00  1.36233999E+00 -6.77413336E-32  2.74791495E+00
  1.36233999E+00 -6.77413336E-32  2.74791495E+00  1.36233999E+00 -6.77413336E-32
  2.74791495E+00  1.36233999E+00 -6.77413336E-32  2.74791495E+00  1.36233999E+00
 -6.77413336E-32  2.74791495E+00  1.36233999E+00 -6.77413336E-32  2.74791495E+00
  1.36233999E+00 -6.77413336E-32  2.74791495E+00  1.36233999E+00 -6.77413336E-32
  2.74791495E+00  1.36233999E+00 -6.77413336E-32  2.74791495E+00  1.36233999E+00
 -6.77413336E-32  2.74791495E+00  1.36233999E+00 -6.77413336E-32 -5.61789065E-18
  1.27201587E+00  0.00000000E+00 -5.61789065E-18  1.27201587E+00  0.00000000E+00
 -5.61789065E-18  1.27201587E+00  0.00000000E+00 -5.61789065E-18  1.27201587E+00
  0.00000000E+00 -5.61789065E-18  1.27201587E+00  0.00000000E+00 -5.61789065E-18
  1.27201587E+00  0.00000000E+00 -5.61789065E-18  1.27201587E+00  0.00000000E+00
 -5.61789065E-18  1.27201587E+00  0.00000000E+00 -5.61789065E-18  1.27201587E+00
  0.00000000E+00 -5.61789065E-18  1.27201587E+00  0.00000000E+00 -5.61789065E-18
  1.27201587E+00  0.00000000E+00 -5.61789065E-18  1.27201587E+00  0.00000000E+00
 -5.61789065E-18  1.27201587E+00  0.00000000E+00 -5.61789065E-18  1.27201587E+00
  0.00000000E+00 -4.98342020E-01 -1.43926853E+00  1.22850793E-32 -4.98342020E-01
 -1.43926853E+00  1.22850793E-32 -4.98342020E-01 -1.43926853E+00  1.22850793E-32
 -4.98342020E-01 -1.43926853E+00  1.22850793E-32 -4.98342020E-01 -1.43926853E+00
  1.22850793E-32 -4.98342020E-01 -1.43926853E+00  1.22850793E-32 -4.98342020E-01
 -1.43926853E+00  1.22850793E-32 -4.98342020E-01 -1.43926853E+00  1.22850793E-32
 -4.98342020E-01 -1.43926853E+00  1.22850793E-32 -4.98342020E-01 -1.43926853E+00
  1.22850793E-32 -4.98342020E-01 -1.43926853E+00  1.22850793E-32 -4.98342020E-01
 -1.43926853E+00  1.22850793E-32 -4.98342020E-01 -1.43926853E+00  1.22850793E-32
 -4.98342020E-01 -1.43926853E+00  1.22850793E-32 -2.68550739E+00 -1.77218095E+00
  6.62028684E-32 -2.68550739E+00 -1.77218095E+00  6.62028684E-32 -2.68550739E+00
 -1.77218095E+00  6.62028684E-32 -2.68550739E+00 -1.77218095E+00  6.62028684E-32
 -2.68550739E+00 -1.77218095E+00  6.62028684E-32 -2.68550739E+00 -1.77218095E+00
  6.62028684E-32 -2.68550739E+00 -1.77218095E+00  6.62028684E-32 -2.68550739E+00
 -1.77218095E+00  6.62028684E-32 -2.68550739E+00 -1.77218095E+00  6.62028684E-32
 -2.68550739E+00 -1.77218095E+00  6.62028684E-32 -2.68550739E+00 -1.77218095E+00
  6.62028684E-32 -2.68550739E+00 -1.77218095E+00  6.62028684E-32 -2.68550739E+00
 -1.77218095E+00  6.62028684E-32 -2.68550739E+00 -1.77218095E+00  6.62028684E-32
Num ILSW                                   I              100
ILSW                                       I   N=         100
           0           0           0           0           2           0
           0           0           0           0           0          -1
           5           0           0           0           0           0
           0           0           0           0           0           0
           1           0           0           0           0           0
           0           0      100000           0          -1           0
           0           0           0           0           0           0
           0           0           0           1           0           0
           0 -2000000000           1           0           0           0
           0           0           4          52           0           0
           0           0           0           0           0           0
           0           0           0           5           0           1
           0           0           0           0           0           0
           0           0           0           0           0           0
           0           0           0           0           0           0
           0           0           0           0           0           0
           0           0           0           0
Num RLSW                                   I               52
RLSW                                       R   N=          52
  1.00000000E+00  1.00000000E+00  1.00000000E+00  1.00000000E+00  1.00000000E+00
  0.00000000E+00  0.00000000E+00  1.00000000E+00  0.00000000E+00  0.00000000E+00
  0.00000000E+00  0.00000000E+00  1.00000000E+00  0.00000000E+00  0.00000000E+00
  0.00000000E+00  0.00000000E+00  1.00000000E+00  0.00000000E+00  0.00000000E+00
  0.00000000E+00  0.00000000E+00  1.00000000E+00  0.00000000E+00  0.00000000E+00
  0.00000000E+00  0.00000000E+00  1.00000000E+00  0.00000000E+00  0.00000000E+00
  0.00000000E+00  0.00000000E+00  1.00000000E+00  0.00000000E+00  0.00000000E+00
  0.00000000E+00  0.00000000E+00  0.00000000E+00  1.00000000E+00  1.00000000E+00
  0.00000000E+00  1.00000000E+00  0.00000000E+00  0.00000000E+00  0.00000000E+00
  0.00000000E+00  0.00000000E+00  0.00000000E+00  0.00000000E+00  0.00000000E+00
  0.00000000E+00  0.00000000E+00
MxBond                                     I                2
NBond                                      I   N=           5
           1           2           2           2           1
IBond                                      I   N=          10
           2           0           1           3           2           4
           3           5           4           0
RBond                                      R   N=          10
  1.00000000E+00  0.00000000E+00  1.00000000E+00  1.00000000E+00  1.00000000E+00
  1.00000000E+00  1.00000000E+00  2.00000000E+00  2.00000000E+00  0.00000000E+00
Virial Ratio                               R      2.002378028135219E+00
SCF Energy                                 R     -2.795018085199903E+02
MP2 Energy                                 R     -2.804466178075719E+02
Total Energy                               R     -2.804466178075719E+02
Post-SCF wavefunction norm                 R      1.120176871284990E+00
RMS Density                                R      3.810605335331061E-09
Job Status                                 I                1
Nuclear derivative order                   I                0
External E-field                           R   N=          35
  0.00000000E+00  0.00000000E+00  0.00000000E+00  0.00000000E+00  0.00000000E+00
  0.00000000E+00  0.00000000E+00  0.00000000E+00  0.00000000E+00  0.00000000E+00
  0.00000000E+00  0.00000000E+00  0.00000000E+00  0.00000000E+00  0.00000000E+00
  0.00000000E+00  0.00000000E+00  0.00000000E+00  0.00000000E+00  0.00000000E+00
  0.00000000E+00  0.00000000E+00  0.00000000E+00  0.00000000E+00  0.00000000E+00
  0.00000000E+00  0.00000000E+00  0.00000000E+00  0.00000000E+00  0.00000000E+00
  0.00000000E+00  0.00000000E+00  0.00000000E+00  0.00000000E+00  0.00000000E+00
IOpCl                                      I                0
IROHF                                      I                0
Alpha Orbital Energies                     R   N=         207
 -2.06911375E+01 -2.06843603E+01 -2.06591829E+01 -1.58129049E+01 -1.62397904E+00
 -1.49461893E+00 -1.25466868E+00 -9.48012600E-01 -7.71916957E-01 -7.60366707E-01
 -7.11612589E-01 -6.79820380E-01 -6.20126493E-01 -5.87648905E-01 -4.84991272E-01
 -4.72498864E-01  2.94278979E-02  7.17275876E-02  8.59508713E-02  1.01780775E-01
  1.33772251E-01  1.34047260E-01  1.44098791E-01  1.54438332E-01  1.78315430E-01
  1.94355708E-01  1.99966811E-01  2.06273188E-01  2.20885075E-01  2.35409312E-01
  2.37397548E-01  2.66883022E-01  2.93426031E-01  3.04147374E-01  3.09920200E-01
  3.43593410E-01  3.49382959E-01  3.87150753E-01  4.20518093E-01  4.32293339E-01
  5.27021969E-01  5.29142938E-01  5.58837200E-01  5.82131811E-01  6.25762749E-01
  6.38466259E-01  6.74268326E-01  6.84099533E-01  7.06240580E-01  7.12047340E-01
  7.20679305E-01  7.30341220E-01  7.45026429E-01  7.89756320E-01  7.89804602E-01
  8.09276669E-01  8.13266600E-01  8.31712554E-01  8.68776075E-01  9.07422156E-01
  9.23273008E-01  9.25404123E-01  9.58766782E-01  9.78211027E-01  9.83271398E-01
  1.01549002E+00  1.05247329E+00  1.05522571E+00  1.08205131E+00  1.11748962E+00
  1.13863691E+00  1.18895056E+00  1.22086322E+00  1.23103090E+00  1.33835208E+00
  1.34803579E+00  1.38730501E+00  1.45135421E+00  1.48858141E+00  1.51228792E+00
  1.53879767E+00  1.56721585E+00  1.57993275E+00  1.61580281E+00  1.66492194E+00
  1.66920164E+00  1.70355441E+00  1.78860455E+00  1.83192607E+00  1.83343778E+00
  1.87922631E+00  1.90912970E+00  1.95733938E+00  1.99053103E+00  2.00736078E+00
  2.07620038E+00  2.11640326E+00  2.13196617E+00  2.15036013E+00  2.22234318E+00
  2.26521481E+00  2.26656504E+00  2.28808587E+00  2.31481802E+00  2.34618115E+00
  2.38501192E+00  2.42117185E+00  2.42434832E+00  2.45494495E+00  2.46328946E+00
  2.47431483E+00  2.50335085E+00  2.58871008E+00  2.59428548E+00  2.61708895E+00
  2.62835077E+00  2.63390142E+00  2.66975873E+00  2.75666463E+00  2.82145884E+00
  2.86484861E+00  2.88938637E+00  2.89465351E+00  2.92117801E+00  2.96147529E+00
  3.02698346E+00  3.06752589E+00  3.12310136E+00  3.19964194E+00  3.23006742E+00
  3.31897614E+00  3.34060433E+00  3.51312297E+00  3.65241278E+00  3.83957307E+00
  3.84839635E+00  4.15247089E+00  4.15632584E+00  4.18407940E+00  4.25639012E+00
  4.36103294E+00  4.39044773E+00  4.46502811E+00  4.51043139E+00  4.66454937E+00
  4.69050591E+00  4.80663661E+00  4.82415937E+00  4.83258376E+00  4.89593155E+00
  5.02174483E+00  5.07791616E+00  5.10368135E+00  5.14911222E+00  5.18763997E+00
  5.23508586E+00  5.27393623E+00  5.31099181E+00  5.33172963E+00  5.35321501E+00
  5.61032093E+00  5.67374967E+00  5.77434660E+00  5.81535892E+00  5.95691962E+00
  6.16385353E+00  6.30617455E+00  6.34188798E+00  6.39708380E+00  6.49342727E+00
  6.50570457E+00  6.61221607E+00  6.66727302E+00  6.69685636E+00  6.75418800E+00
  6.76551334E+00  6.83059058E+00  6.89780098E+00  7.00050490E+00  7.05750756E+00
  7.06308687E+00  7.09133102E+00  7.12347073E+00  7.15674653E+00  7.18109405E+00
  7.22377437E+00  7.24176197E+00  7.31074252E+00  7.32574257E+00  7.34674109E+00
  7.39859497E+00  7.41553644E+00  7.48419139E+00  7.60881785E+00  7.61400465E+00
  7.62769831E+00  7.66564940E+00  7.78438867E+00  7.88645968E+00  8.09124501E+00
  8.31022997E+00  8.42249541E+00  8.54567316E+00  1.33959811E+01  1.43974659E+01
  1.51381974E+01  1.61509847E+01
Alpha MO coefficients                      R   N=       42849
  9.19428355E-05 -7.47681308E-04 -7.98512665E-04 -6.05381729E-06 -3.51084572E-05
 -2.29303782E-05  0.00000000E+00 -3.13507484E-05  1.25549567E-04  0.00000000E+00
  1.01161098E-04  6.48321366E-05  0.00000000E+00  3.49393996E-05  0.00000000E+00
  0.00000000E+00 -3.79243584E-05  2.56546578E-05 -6.12748169E-07  0.00000000E+00
  0.00000000E+00 -1.19457376E-04  1.10289374E-04  4.43155467E-03 -2.71185822E-04
  4.06656806E-06  1.72619785E-03  1.92349240E-03  1.06784710E-04  4.89628503E-06
  0.00000000E+00 -6.16283953E-04 -4.54339532E-06  0.00000000E+00 -1.12335262E-03
  8.74371647E-04  0.00000000E+00 -4.16915846E-04  6.73881142E-05  0.00000000E+00
  2.91036863E-05  0.00000000E+00  0.00000000E+00 -5.57114484E-05  4.83711188E-06
 -3.87602914E-04  0.00000000E+00  0.00000000E+00  7.36348301E-04 -2.80204930E-05
 -4.56740952E-04  0.00000000E+00  0.00000000E+00  2.46512505E-04 -2.28750672E-05
  0.00000000E+00  8.04030705E-05  1.16645367E-05  0.00000000E+00  0.00000000E+00
 -1.09959379E-04 -4.65234704E-06  0.00000000E+00  2.53879866E-04 -2.80242154E-05
  0.00000000E+00  0.00000000E+00 -3.61287408E-04  5.77448763E-05  9.76914362E-01
 -9.21335272E-03  4.33151831E-02  2.03869734E-03 -9.65406625E-04  1.50166131E-03
 -1.35714638E-03  0.00000000E+00 -1.44512151E-03  1.38578044E-03  0.00000000E+00
  4.63506689E-05 -1.21155296E-03  0.00000000E+00 -1.46882395E-04 -1.73126381E-05
  0.00000000E+00  4.72883647E-05  0.00000000E+00  0.00000000E+00 -3.43683143E-05
  1.97002540E-05  7.45620027E-04  0.00000000E+00  0.00000000E+00 -2.42132200E-04
 -3.87143352E-04 -3.47951913E-04  0.00000000E+00  0.00000000E+00 -3.21561392E-04
 -4.00914803E-04  0.00000000E+00  4.77674857E-05 -4.95736448E-05  0.00000000E+00
  0.00000000E+00 -3.99319445E-05 -1.48567566E-05  0.00000000E+00  2.35054848E-05
  2.45976693E-05  0.00000000E+00  0.00000000E+00 -3.06171752E-04 -1.39714921E-04
  3.88605732E-05  4.51688695E-05 -2.63075528E-04 -7.22017138E-04 -1.47492012E-04
 -2.70313078E-05 -9.65821903E-05  0.00000000E+00  2.69401535E-04  7.04110250E-04
  0.00000000E+00 -8.59752045E-04 -5.24325031E-04  0.00000000E+00 -1.31567236E-04
 -3.11456478E-05  0.00000000E+00 -1.82520389E-05  0.00000000E+00  0.00000000E+00
 -2.97209235E-05  1.50846232E-05 -3.26078121E-04  0.00000000E+00  0.00000000E+00
 -8.23793226E-04  1.30838058E-04 -3.60513600E-05  0.00000000E+00  0.00000000E+00
  1.11769995E-04 -1.11026219E-04  0.00000000E+00 -2.07623634E-05 -1.19589152E-04
  0.00000000E+00  0.00000000E+00 -6.32742565E-05 -1.37061255E-04  0.00000000E+00
  2.77847345E-06 -1.50555458E-04  0.00000000E+00  0.00000000E+00  4.39523249E-05
 -4.18418024E-04 -2.49255226E-03  1.20852776E-04 -1.19597051E-04 -2.63409198E-04
  1.27503480E-04 -7.72246972E-06 -2.74571164E-05  0.00000000E+00  6.83236528E-05
  1.62181229E-04  0.00000000E+00  2.30192397E-04  2.20837390E-04  0.00000000E+00
  1.28518257E-04  2.56989567E-05  0.00000000E+00 -3.33352525E-06  0.00000000E+00
  0.00000000E+00 -1.77870846E-05  9.70707493E-07  7.45704339E-07  0.00000000E+00
  0.00000000E+00  7.97433430E-05  8.87964890E-05 -1.02918310E-04  0.00000000E+00
  0.00000000E+00  1.63776887E-04  1.69929810E-04  0.00000000E+00  1.58744673E-05
 -3.54406621E-06  0.00000000E+00  0.00000000E+00 -4.27087567E-06 -1.20479471E-05
  0.00000000E+00 -3.37778690E-05  4.48882277E-05  0.00000000E+00  0.00000000E+00
  8.29887911E-05  9.05596514E-05  3.48491505E-05 -9.86914655E-04 -4.94470791E-04
 -1.16786795E-05 -2.36058860E-05  1.68032684E-05  0.00000000E+00 -2.00833124E-06
  2.70979861E-04  0.00000000E+00 -4.65571857E-05  1.35006240E-04  0.00000000E+00
  2.40334857E-05  0.00000000E+00  0.00000000E+00  1.41336348E-05  1.27408659E-05
 -2.95747554E-05  0.00000000E+00  0.00000000E+00  1.36534331E-05  3.93538138E-05
  1.08392232E-04  8.39575092E-05 -2.87116505E-05  7.45173363E-04  6.61549619E-04
  9.96200234E-06  2.63926387E-06  0.00000000E+00 -7.11168845E-05  1.31224379E-05
  0.00000000E+00  3.78110875E-04  9.04067494E-04  0.00000000E+00  1.00732887E-05
  8.54891347E-05  0.00000000E+00 -2.12601595E-06  0.00000000E+00  0.00000000E+00
 -3.85094916E-07 -6.65086587E-06 -3.61417945E-05  0.00000000E+00  0.00000000E+00
 -1.52879854E-05  8.98946801E-05 -2.22941339E-05  0.00000000E+00  0.00000000E+00
 -2.72591461E-04 -1.43140481E-04  0.00000000E+00  9.51511761E-06  6.10811843E-06
  0.00000000E+00  0.00000000E+00  2.55382632E-06 -1.81287207E-05  0.00000000E+00
 -4.29681470E-05 -3.83528525E-05  0.00000000E+00  0.00000000E+00 -8.25788447E-05
  2.26320951E-05  2.53130988E-03  3.92520594E-05  8.74681116E-05 -4.28187835E-05
 -4.78175092E-04  7.31769345E-06  1.57854706E-05  0.00000000E+00 -6.25874379E-05
 -5.44761865E-05  0.00000000E+00  2.41931927E-04 -1.97054859E-04  0.00000000E+00
 -1.91432637E-04 -6.55421562E-05  0.00000000E+00 -8.56128750E-06  0.00000000E+00
  0.00000000E+00  2.27104066E-05  1.96635917E-05  3.66956777E-06  0.00000000E+00
  0.00000000E+00 -1.19512769E-04 -4.53506122E-05 -3.89409698E-07  0.00000000E+00
  0.00000000E+00 -2.23918774E-04 -2.14710895E-04  0.00000000E+00  3.04780364E-06
 -8.87100450E-07  0.00000000E+00  0.00000000E+00  1.42444998E-06 -1.31613925E-05
  0.00000000E+00 -4.51779189E-05  5.23604086E-06  0.00000000E+00  0.00000000E+00
 -7.59245784E-05  1.86650348E-04  2.58759122E-04  1.46575152E-03 -7.78524788E-05
 -1.53387993E-03  4.08662303E-04 -1.44366993E-04  6.27996004E-07  0.00000000E+00
 -2.09175337E-03 -4.02257306E-04  0.00000000E+00  1.02075922E-03  7.50340671E-04
  0.00000000E+00 -1.71139424E-04  5.76404039E-05  0.00000000E+00 -1.23388845E-04
  0.00000000E+00  0.00000000E+00  2.43368550E-04  9.33176240E-05 -4.41830361E-04
  0.00000000E+00  0.00000000E+00  9.00789971E-04 -6.91705237E-05  1.15527231E-05
  0.00000000E+00  0.00000000E+00 -3.33907755E-04 -1.24370900E-04  0.00000000E+00
 -1.15675664E-06  1.55305657E-05  0.00000000E+00  0.00000000E+00  1.88104741E-05
  1.33630422E-05  0.00000000E+00  1.64341497E-04 -7.18719601E-05  0.00000000E+00
  0.00000000E+00 -2.40800325E-04  4.32305416E-05  9.76649794E-01 -9.84780010E-03
  4.35677214E-02  4.48477715E-03 -4.55549058E-04  2.14933905E-03  4.79033957E-04
  0.00000000E+00 -2.38628672E-03 -6.01770059E-04  0.00000000E+00  1.13394165E-03
 -2.72514728E-06  0.00000000E+00  3.43282123E-06 -4.34581222E-05  0.00000000E+00
 -2.32205854E-04  0.00000000E+00  0.00000000E+00  1.02946735E-04  3.13666946E-05
  3.91014061E-04  0.00000000E+00  0.00000000E+00 -8.35765900E-04 -4.17223424E-04
 -1.54923400E-04  0.00000000E+00  0.00000000E+00  2.54499680E-04  1.77327895E-05
  0.00000000E+00  5.24383129E-05  1.76377835E-05  0.00000000E+00  0.00000000E+00
 -2.22116460E-05 -1.32614553E-05  0.00000000E+00  1.37957908E-04  8.95703508E-06
  0.00000000E+00  0.00000000E+00 -1.90774077E-04 -1.39868666E-04  4.79986595E-04
  2.18582197E-03  1.40016289E-04  1.10322024E-05 -4.43517074E-05 -2.45019282E-04
  0.00000000E+00  6.57523043E-05 -1.30067244E-03  0.00000000E+00  2.69596113E-04
 -3.44175973E-04  0.00000000E+00 -5.91558578E-07  0.00000000E+00  0.00000000E+00
  7.64267986E-05  3.93039800E-06 -1.50280468E-04  0.00000000E+00  0.00000000E+00
 -5.37219510E-04  1.06144544E-05  9.76829413E-01 -9.15107187E-03  4.34573292E-02
  3.73008055E-05 -1.08083001E-03 -1.53858130E-03  1.46667170E-03  0.00000000E+00
  1.54680307E-03 -1.29712915E-03  0.00000000E+00 -6.09243030E-04 -9.70613786E-04
  0.00000000E+00  6.02523879E-05 -4.59181532E-06  0.00000000E+00  2.66217501E-05
  0.00000000E+00  0.00000000E+00 -1.17555624E-04  7.76389165E-06  7.66663674E-04
  0.00000000E+00  0.00000000E+00 -2.10730724E-04 -2.71599551E-04 -2.62855415E-04
  0.00000000E+00  0.00000000E+00  1.98383643E-04  1.44757189E-04  0.00000000E+00
 -6.41460695E-05 -2.94809109E-07  0.00000000E+00  0.00000000E+00  2.02214302E-05
  1.00763588E-05  0.00000000E+00  4.96777706E-06  1.30157346E-04  0.00000000E+00
  0.00000000E+00  2.78285978E-04  8.57064750E-05 -4.52191861E-03 -2.11379453E-04