 Entering Gaussian System, Link 0=g16
 Input=hoono_d1_189p8116.gjf
 Output=hoono_d1_189p8116.log
 Initial command:
 /sw/contrib/gaussian/g16/B01/g16/l1.exe "/scr/Gau-20028.inp" -scrdir="/scr/"
 Entering Link 1 = /sw/contrib/gaussian/g16/B01/g16/l1.exe PID=     20029.
  
 Copyright (c) 1988-2017, Gaussian, Inc.  All Rights Reserved.
  
 This is part of the Gaussian(R) 16 program.  It is based on
 the Gaussian(R) 09 system (copyright 2009, Gaussian, Inc.),
 the Gaussian(R) 03 system (copyright 2003, Gaussian, Inc.),
 the Gaussian(R) 98 system (copyright 1998, Gaussian, Inc.),
 the Gaussian(R) 94 system (copyright 1995, Gaussian, Inc.),
 the Gaussian 92(TM) system (copyright 1992, Gaussian, Inc.),
 the Gaussian 90(TM) system (copyright 1990, Gaussian, Inc.),
 the Gaussian 88(TM) system (copyright 1988, Gaussian, Inc.),
 the Gaussian 86(TM) system (copyright 1986, Carnegie Mellon
 University), and the Gaussian 82(TM) system (copyright 1983,
 Carnegie Mellon University). Gaussian is a federally registered
 trademark of Gaussian, Inc.
  
 This software contains proprietary and confidential information,
 including trade secrets, belonging to Gaussian, Inc.
  
 This software is provided under written license and may be
 used, copied, transmitted, or stored only in accord with that
 written license.
  
 The following legend is applicable only to US Government
 contracts under FAR:
  
                    RESTRICTED RIGHTS LEGEND
  
 Use, reproduction and disclosure by the US Government is
 subject to restrictions as set forth in subparagraphs (a)
 and (c) of the Commercial Computer Software - Restricted
 Rights clause in FAR 52.227-19.
  
 Gaussian, Inc.
 340 Quinnipiac St., Bldg. 40, Wallingford CT 06492
  
  
 ---------------------------------------------------------------
 Warning -- This program may not be used in any manner that
 competes with the business of Gaussian, Inc. or will provide
 assistance to any competitor of Gaussian, Inc.  The licensee
 of this program is prohibited from giving any competitor of
 Gaussian, Inc. access to this program.  By using this program,
 the user acknowledges that Gaussian, Inc. is engaged in the
 business of creating and licensing software in the field of
 computational chemistry and represents and warrants to the
 licensee that it is not a competitor of Gaussian, Inc. and that
 it will not use this program in any manner prohibited above.
 ---------------------------------------------------------------
  

 Cite this work as:
 Gaussian 16, Revision B.01,
 M. J. Frisch, G. W. Trucks, H. B. Schlegel, G. E. Scuseria, 
 M. A. Robb, J. R. Cheeseman, G. Scalmani, V. Barone, 
 G. A. Petersson, H. Nakatsuji, X. Li, M. Caricato, A. V. Marenich, 
 J. Bloino, B. G. Janesko, R. Gomperts, B. Mennucci, H. P. Hratchian, 
 J. V. Ortiz, A. F. Izmaylov, J. L. Sonnenberg, D. Williams-Young, 
 F. Ding, F. Lipparini, F. Egidi, J. Goings, B. Peng, A. Petrone, 
 T. Henderson, D. Ranasinghe, V. G. Zakrzewski, J. Gao, N. Rega, 
 G. Zheng, W. Liang, M. Hada, M. Ehara, K. Toyota, R. Fukuda, 
 J. Hasegawa, M. Ishida, T. Nakajima, Y. Honda, O. Kitao, H. Nakai, 
 T. Vreven, K. Throssell, J. A. Montgomery, Jr., J. E. Peralta, 
 F. Ogliaro, M. J. Bearpark, J. J. Heyd, E. N. Brothers, K. N. Kudin, 
 V. N. Staroverov, T. A. Keith, R. Kobayashi, J. Normand, 
 K. Raghavachari, A. P. Rendell, J. C. Burant, S. S. Iyengar, 
 J. Tomasi, M. Cossi, J. M. Millam, M. Klene, C. Adamo, R. Cammi, 
 J. W. Ochterski, R. L. Martin, K. Morokuma, O. Farkas, 
 J. B. Foresman, and D. J. Fox, Gaussian, Inc., Wallingford CT, 2016.
 
 ******************************************
 Gaussian 16:  ES64L-G16RevB.01 20-Dec-2017
                14-Feb-2022 
 ******************************************
 %nproc=28
 Will use up to   28 processors via shared memory.
 %mem=120GB
 %chk=hoono_d1_189p8116.chk
 -------------------------------------
 #p SP mp2/aug-cc-pvtz density=current
 -------------------------------------
 1/30=1,38=1,172=1/1;
 2/12=2,17=6,18=5,40=1/2;
 3/5=16,6=1,7=10,11=9,25=1,30=1,71=1/1,2,3;
 4//1;
 5/5=2,38=5/2;
 8/6=4,10=1/1;
 9/15=1,16=-3/6;
 10/5=1,13=10/2;
 6/7=2,8=2,9=2,10=2,22=-1/1;
 99/5=1,9=1/99;
 Leave Link    1 at Mon Feb 14 22:13:26 2022, MaxMem= 16106127360 cpu:               4.2 elap:               0.2
 (Enter /sw/contrib/gaussian/g16/B01/g16/l101.exe)
 -----
 title
 -----
 Symbolic Z-matrix:
 Charge =  0 Multiplicity = 1
 H
 O                    1    r1
 O                    2    r2       1    a1
 N                    3    r3       2    a2       1    d1       0
 O                    4    r4       3    a3       2    d2       0
       Variables:
  r1                    0.96898                  
  r2                    1.45492                  
  r3                    1.45878                  
  r4                    1.17073                  
  a1                   97.59495                  
  a2                  102.29752                  
  a3                  109.06955                  
  d1                  189.81162                  
  d2                  180.                       
 
 ITRead=  0  0  0  0  0
 MicOpt= -1 -1 -1 -1 -1
 NAtoms=      5 NQM=        5 NQMF=       0 NMMI=      0 NMMIF=      0
                NMic=       0 NMicF=      0.
                    Isotopes and Nuclear Properties:
 (Nuclear quadrupole moments (NQMom) in fm**2, nuclear magnetic moments (NMagM)
  in nuclear magnetons)

  Atom         1           2           3           4           5
 IAtWgt=           1          16          16          14          16
 AtmWgt=   1.0078250  15.9949146  15.9949146  14.0030740  15.9949146
 NucSpn=           1           0           0           2           0
 AtZEff=  -0.0000000  -0.0000000  -0.0000000  -0.0000000  -0.0000000
 NQMom=    0.0000000   0.0000000   0.0000000   2.0440000   0.0000000
 NMagM=    2.7928460   0.0000000   0.0000000   0.4037610   0.0000000
 AtZNuc=   1.0000000   8.0000000   8.0000000   7.0000000   8.0000000
 Leave Link  101 at Mon Feb 14 22:13:26 2022, MaxMem= 16106127360 cpu:               2.5 elap:               0.1
 (Enter /sw/contrib/gaussian/g16/B01/g16/l202.exe)
                          Input orientation:                          
 ---------------------------------------------------------------------
 Center     Atomic      Atomic             Coordinates (Angstroms)
 Number     Number       Type             X           Y           Z
 ---------------------------------------------------------------------
      1          1           0        0.000000    0.000000    0.000000
      2          8           0        0.000000    0.000000    0.968976
      3          8           0        1.442156    0.000000    1.161271
      4          7           0        1.564507   -0.242886    2.594480
      5          8           0        2.698890   -0.266412    2.882973
 ---------------------------------------------------------------------
                    Distance matrix (angstroms):
                    1          2          3          4          5
     1  H    0.000000
     2  O    0.968976   0.000000
     3  O    1.851584   1.454919   0.000000
     4  N    3.039408   2.269127   1.458784   0.000000
     5  O    3.958095   3.319392   2.148165   1.170729   0.000000
 Stoichiometry    HNO3
 Framework group  C1[X(HNO3)]
 Deg. of freedom     9
 Full point group                 C1      NOp   1
 Largest Abelian subgroup         C1      NOp   1
 Largest concise Abelian subgroup C1      NOp   1
                         Standard orientation:                         
 ---------------------------------------------------------------------
 Center     Atomic      Atomic             Coordinates (Angstroms)
 Number     Number       Type             X           Y           Z
 ---------------------------------------------------------------------
      1          1           0        2.241958    0.426922    0.136680
      2          8           0        1.599193   -0.282771   -0.011986
      3          8           0        0.400231    0.541404   -0.015956
      4          7           0       -0.663165   -0.456967    0.006290
      5          8           0       -1.699399    0.087848    0.005354
 ---------------------------------------------------------------------
 Rotational constants (GHZ):          54.8694184           5.0116263           4.5942385
 Leave Link  202 at Mon Feb 14 22:13:26 2022, MaxMem= 16106127360 cpu:               0.3 elap:               0.0
 (Enter /sw/contrib/gaussian/g16/B01/g16/l301.exe)
 Standard basis: Aug-CC-pVTZ (5D, 7F)
 Ernie: Thresh=  0.10000D-02 Tol=  0.10000D-05 Strict=F.
 Ernie:  12 primitive shells out of 131 were deleted.
 There are   245 symmetry adapted cartesian basis functions of A   symmetry.
 There are   207 symmetry adapted basis functions of A   symmetry.
   207 basis functions,   315 primitive gaussians,   245 cartesian basis functions
    16 alpha electrons       16 beta electrons
       nuclear repulsion energy       116.8761408863 Hartrees.
 IExCor=    0 DFT=F Ex=HF Corr=None ExCW=0 ScaHFX=  1.000000
 ScaDFX=  1.000000  1.000000  1.000000  1.000000 ScalE2=  1.000000  1.000000
 IRadAn=      5 IRanWt=     -1 IRanGd=            0 ICorTp=0 IEmpDi=  4
 NAtoms=    5 NActive=    5 NUniq=    5 SFac= 1.00D+00 NAtFMM=   60 NAOKFM=F Big=F
 Integral buffers will be    131072 words long.
 Raffenetti 1 integral format.
 Two-electron integral symmetry is turned on.
 Leave Link  301 at Mon Feb 14 22:13:26 2022, MaxMem= 16106127360 cpu:               2.3 elap:               0.1
 (Enter /sw/contrib/gaussian/g16/B01/g16/l302.exe)
 NPDir=0 NMtPBC=     1 NCelOv=     1 NCel=       1 NClECP=     1 NCelD=      1
         NCelK=      1 NCelE2=     1 NClLst=     1 CellRange=     0.0.
 One-electron integrals computed using PRISM.
 One-electron integral symmetry used in STVInt
 NBasis=   207 RedAO= T EigKep=  1.82D-04  NBF=   207
 NBsUse=   207 1.00D-06 EigRej= -1.00D+00 NBFU=   207
 Leave Link  302 at Mon Feb 14 22:13:27 2022, MaxMem= 16106127360 cpu:               4.6 elap:               0.2
 (Enter /sw/contrib/gaussian/g16/B01/g16/l303.exe)
 DipDrv:  MaxL=1.
 Leave Link  303 at Mon Feb 14 22:13:27 2022, MaxMem= 16106127360 cpu:               0.8 elap:               0.1
 (Enter /sw/contrib/gaussian/g16/B01/g16/l401.exe)
 ExpMin= 2.53D-02 ExpMax= 1.53D+04 ExpMxC= 5.22D+02 IAcc=3 IRadAn=         5 AccDes= 0.00D+00
 Harris functional with IExCor=  205 and IRadAn=       5 diagonalized for initial guess.
 HarFok:  IExCor=  205 AccDes= 0.00D+00 IRadAn=         5 IDoV= 1 UseB2=F ITyADJ=14
 ICtDFT=  3500011 ScaDFX=  1.000000  1.000000  1.000000  1.000000
 FoFCou: FMM=F IPFlag=           0 FMFlag=      100000 FMFlg1=           0
         NFxFlg=           0 DoJE=T BraDBF=F KetDBF=T FulRan=T
         wScrn=  0.000000 ICntrl=       500 IOpCl=  0 I1Cent=   200000004 NGrid=           0
         NMat0=    1 NMatS0=      1 NMatT0=    0 NMatD0=    1 NMtDS0=    0 NMtDT0=    0
 Petite list used in FoFCou.
 Harris En= -279.628752318610    
 JPrj=0 DoOrth=F DoCkMO=F.
 Leave Link  401 at Mon Feb 14 22:13:27 2022, MaxMem= 16106127360 cpu:               7.9 elap:               0.3
 (Enter /sw/contrib/gaussian/g16/B01/g16/l502.exe)
 Keep R1 ints in memory in canonical form, NReq=245616937.
 FoFCou: FMM=F IPFlag=           0 FMFlag=           0 FMFlg1=           0
         NFxFlg=           0 DoJE=F BraDBF=F KetDBF=F FulRan=T
         wScrn=  0.000000 ICntrl=       600 IOpCl=  0 I1Cent=           0 NGrid=           0
         NMat0=    1 NMatS0=  21528 NMatT0=    0 NMatD0=    1 NMtDS0=    0 NMtDT0=    0
 Symmetry not used in FoFCou.
 Two-electron integral symmetry not used.
 Closed shell SCF:
 Using DIIS extrapolation, IDIIS=  1040.
 NGot= 16106127360 LenX= 15874260251 LenY= 15874199785
 Requested convergence on RMS density matrix=1.00D-08 within 128 cycles.
 Requested convergence on MAX density matrix=1.00D-06.
 Requested convergence on             energy=1.00D-06.
 No special actions if energy rises.

 Cycle   1  Pass 1  IDiag  1:
 E= -279.370584309544    
 DIIS: error= 2.34D-02 at cycle   1 NSaved=   1.
 NSaved= 1 IEnMin= 1 EnMin= -279.370584309544     IErMin= 1 ErrMin= 2.34D-02
 ErrMax= 2.34D-02  0.00D+00 EMaxC= 1.00D-01 BMatC= 4.38D-01 BMatP= 4.38D-01
 IDIUse=3 WtCom= 7.66D-01 WtEn= 2.34D-01
 Coeff-Com:  0.100D+01
 Coeff-En:   0.100D+01
 Coeff:      0.100D+01
 Gap=     0.518 Goal=   None    Shift=    0.000
 GapD=    0.518 DampG=2.000 DampE=0.500 DampFc=1.0000 IDamp=-1.
 RMSDP=1.62D-03 MaxDP=9.91D-02              OVMax= 1.13D-01

 Cycle   2  Pass 1  IDiag  1:
 E= -279.452513236336     Delta-E=       -0.081928926792 Rises=F Damp=F
 DIIS: error= 1.72D-02 at cycle   2 NSaved=   2.
 NSaved= 2 IEnMin= 2 EnMin= -279.452513236336     IErMin= 2 ErrMin= 1.72D-02
 ErrMax= 1.72D-02  0.00D+00 EMaxC= 1.00D-01 BMatC= 7.18D-02 BMatP= 4.38D-01
 IDIUse=3 WtCom= 8.28D-01 WtEn= 1.72D-01
 Coeff-Com:  0.195D+00 0.805D+00
 Coeff-En:   0.000D+00 0.100D+01
 Coeff:      0.161D+00 0.839D+00
 Gap=     0.531 Goal=   None    Shift=    0.000
 RMSDP=8.99D-04 MaxDP=3.73D-02 DE=-8.19D-02 OVMax= 6.74D-02

 Cycle   3  Pass 1  IDiag  1:
 E= -279.481754865860     Delta-E=       -0.029241629524 Rises=F Damp=F
 DIIS: error= 9.94D-03 at cycle   3 NSaved=   3.
 NSaved= 3 IEnMin= 3 EnMin= -279.481754865860     IErMin= 3 ErrMin= 9.94D-03
 ErrMax= 9.94D-03  0.00D+00 EMaxC= 1.00D-01 BMatC= 2.85D-02 BMatP= 7.18D-02
 IDIUse=3 WtCom= 9.01D-01 WtEn= 9.94D-02
 Coeff-Com: -0.330D-01 0.377D+00 0.656D+00
 Coeff-En:   0.000D+00 0.239D+00 0.761D+00
 Coeff:     -0.297D-01 0.364D+00 0.666D+00
 Gap=     0.510 Goal=   None    Shift=    0.000
 RMSDP=3.75D-04 MaxDP=1.54D-02 DE=-2.92D-02 OVMax= 3.78D-02

 Cycle   4  Pass 1  IDiag  1:
 E= -279.500702540001     Delta-E=       -0.018947674141 Rises=F Damp=F
 DIIS: error= 1.25D-03 at cycle   4 NSaved=   4.
 NSaved= 4 IEnMin= 4 EnMin= -279.500702540001     IErMin= 4 ErrMin= 1.25D-03
 ErrMax= 1.25D-03  0.00D+00 EMaxC= 1.00D-01 BMatC= 4.88D-04 BMatP= 2.85D-02
 IDIUse=3 WtCom= 9.88D-01 WtEn= 1.25D-02
 Coeff-Com: -0.117D-01 0.576D-01 0.158D+00 0.796D+00
 Coeff-En:   0.000D+00 0.000D+00 0.000D+00 0.100D+01
 Coeff:     -0.115D-01 0.568D-01 0.156D+00 0.799D+00
 Gap=     0.501 Goal=   None    Shift=    0.000
 RMSDP=9.00D-05 MaxDP=2.18D-03 DE=-1.89D-02 OVMax= 1.08D-02

 Cycle   5  Pass 1  IDiag  1:
 E= -279.501373581107     Delta-E=       -0.000671041106 Rises=F Damp=F
 DIIS: error= 7.08D-04 at cycle   5 NSaved=   5.
 NSaved= 5 IEnMin= 5 EnMin= -279.501373581107     IErMin= 5 ErrMin= 7.08D-04
 ErrMax= 7.08D-04  0.00D+00 EMaxC= 1.00D-01 BMatC= 8.69D-05 BMatP= 4.88D-04
 IDIUse=3 WtCom= 9.93D-01 WtEn= 7.08D-03
 Coeff-Com:  0.612D-02-0.722D-01-0.118D+00 0.202D-01 0.116D+01
 Coeff-En:   0.000D+00 0.000D+00 0.000D+00 0.000D+00 0.100D+01
 Coeff:      0.608D-02-0.717D-01-0.117D+00 0.200D-01 0.116D+01
 Gap=     0.501 Goal=   None    Shift=    0.000
 RMSDP=7.61D-05 MaxDP=2.10D-03 DE=-6.71D-04 OVMax= 1.10D-02

 Cycle   6  Pass 1  IDiag  1:
 E= -279.501687568637     Delta-E=       -0.000313987529 Rises=F Damp=F
 DIIS: error= 2.82D-04 at cycle   6 NSaved=   6.
 NSaved= 6 IEnMin= 6 EnMin= -279.501687568637     IErMin= 6 ErrMin= 2.82D-04
 ErrMax= 2.82D-04  0.00D+00 EMaxC= 1.00D-01 BMatC= 1.66D-05 BMatP= 8.69D-05
 IDIUse=3 WtCom= 9.97D-01 WtEn= 2.82D-03
 Coeff-Com:  0.596D-03 0.154D-02 0.456D-02-0.130D+00-0.230D+00 0.135D+01
 Coeff-En:   0.000D+00 0.000D+00 0.000D+00 0.000D+00 0.000D+00 0.100D+01
 Coeff:      0.595D-03 0.154D-02 0.454D-02-0.129D+00-0.230D+00 0.135D+01
 Gap=     0.502 Goal=   None    Shift=    0.000
 RMSDP=4.52D-05 MaxDP=1.06D-03 DE=-3.14D-04 OVMax= 5.52D-03

 Cycle   7  Pass 1  IDiag  1:
 E= -279.501759953151     Delta-E=       -0.000072384515 Rises=F Damp=F
 DIIS: error= 9.92D-05 at cycle   7 NSaved=   7.
 NSaved= 7 IEnMin= 7 EnMin= -279.501759953151     IErMin= 7 ErrMin= 9.92D-05
 ErrMax= 9.92D-05  0.00D+00 EMaxC= 1.00D-01 BMatC= 4.50D-06 BMatP= 1.66D-05
 IDIUse=1 WtCom= 1.00D+00 WtEn= 0.00D+00
 Coeff-Com: -0.937D-03 0.135D-01 0.265D-01-0.242D-01-0.287D+00 0.390D+00
 Coeff-Com:  0.882D+00
 Coeff:     -0.937D-03 0.135D-01 0.265D-01-0.242D-01-0.287D+00 0.390D+00
 Coeff:      0.882D+00
 Gap=     0.502 Goal=   None    Shift=    0.000
 RMSDP=1.33D-05 MaxDP=3.78D-04 DE=-7.24D-05 OVMax= 1.54D-03

 Cycle   8  Pass 1  IDiag  1:
 E= -279.501768828785     Delta-E=       -0.000008875634 Rises=F Damp=F
 DIIS: error= 4.77D-05 at cycle   8 NSaved=   8.
 NSaved= 8 IEnMin= 8 EnMin= -279.501768828785     IErMin= 8 ErrMin= 4.77D-05
 ErrMax= 4.77D-05  0.00D+00 EMaxC= 1.00D-01 BMatC= 6.06D-07 BMatP= 4.50D-06
 IDIUse=1 WtCom= 1.00D+00 WtEn= 0.00D+00
 Coeff-Com: -0.449D-03 0.345D-02 0.761D-02 0.274D-01-0.410D-01-0.197D+00
 Coeff-Com:  0.171D+00 0.103D+01
 Coeff:     -0.449D-03 0.345D-02 0.761D-02 0.274D-01-0.410D-01-0.197D+00
 Coeff:      0.171D+00 0.103D+01
 Gap=     0.501 Goal=   None    Shift=    0.000
 RMSDP=6.90D-06 MaxDP=2.02D-04 DE=-8.88D-06 OVMax= 7.46D-04

 Cycle   9  Pass 1  IDiag  1:
 E= -279.501770601416     Delta-E=       -0.000001772630 Rises=F Damp=F
 DIIS: error= 1.56D-05 at cycle   9 NSaved=   9.
 NSaved= 9 IEnMin= 9 EnMin= -279.501770601416     IErMin= 9 ErrMin= 1.56D-05
 ErrMax= 1.56D-05  0.00D+00 EMaxC= 1.00D-01 BMatC= 6.92D-08 BMatP= 6.06D-07
 IDIUse=1 WtCom= 1.00D+00 WtEn= 0.00D+00
 Coeff-Com:  0.123D-03-0.172D-02-0.308D-02-0.205D-02 0.342D-01-0.526D-04
 Coeff-Com: -0.167D+00-0.103D+00 0.124D+01
 Coeff:      0.123D-03-0.172D-02-0.308D-02-0.205D-02 0.342D-01-0.526D-04
 Coeff:     -0.167D+00-0.103D+00 0.124D+01
 Gap=     0.502 Goal=   None    Shift=    0.000
 RMSDP=1.94D-06 MaxDP=5.16D-05 DE=-1.77D-06 OVMax= 1.72D-04

 Cycle  10  Pass 1  IDiag  1:
 E= -279.501770761733     Delta-E=       -0.000000160317 Rises=F Damp=F
 DIIS: error= 3.97D-06 at cycle  10 NSaved=  10.
 NSaved=10 IEnMin=10 EnMin= -279.501770761733     IErMin=10 ErrMin= 3.97D-06
 ErrMax= 3.97D-06  0.00D+00 EMaxC= 1.00D-01 BMatC= 5.56D-09 BMatP= 6.92D-08
 IDIUse=1 WtCom= 1.00D+00 WtEn= 0.00D+00
 Coeff-Com:  0.310D-04-0.243D-03-0.324D-03-0.270D-02 0.165D-02 0.196D-01
 Coeff-Com: -0.130D-01-0.744D-01-0.806D-01 0.115D+01
 Coeff:      0.310D-04-0.243D-03-0.324D-03-0.270D-02 0.165D-02 0.196D-01
 Coeff:     -0.130D-01-0.744D-01-0.806D-01 0.115D+01
 Gap=     0.502 Goal=   None    Shift=    0.000
 RMSDP=5.07D-07 MaxDP=2.10D-05 DE=-1.60D-07 OVMax= 4.09D-05

 Cycle  11  Pass 1  IDiag  1:
 E= -279.501770774406     Delta-E=       -0.000000012672 Rises=F Damp=F
 DIIS: error= 1.76D-06 at cycle  11 NSaved=  11.
 NSaved=11 IEnMin=11 EnMin= -279.501770774406     IErMin=11 ErrMin= 1.76D-06
 ErrMax= 1.76D-06  0.00D+00 EMaxC= 1.00D-01 BMatC= 6.71D-10 BMatP= 5.56D-09
 IDIUse=1 WtCom= 1.00D+00 WtEn= 0.00D+00
 Coeff-Com: -0.214D-04 0.245D-03 0.490D-03 0.539D-03-0.431D-02-0.361D-02
 Coeff-Com:  0.212D-01 0.313D-01-0.139D+00-0.181D+00 0.127D+01
 Coeff:     -0.214D-04 0.245D-03 0.490D-03 0.539D-03-0.431D-02-0.361D-02
 Coeff:      0.212D-01 0.313D-01-0.139D+00-0.181D+00 0.127D+01
 Gap=     0.502 Goal=   None    Shift=    0.000
 RMSDP=1.82D-07 MaxDP=6.51D-06 DE=-1.27D-08 OVMax= 1.69D-05

 Cycle  12  Pass 1  IDiag  1:
 E= -279.501770776299     Delta-E=       -0.000000001893 Rises=F Damp=F
 DIIS: error= 5.51D-07 at cycle  12 NSaved=  12.
 NSaved=12 IEnMin=12 EnMin= -279.501770776299     IErMin=12 ErrMin= 5.51D-07
 ErrMax= 5.51D-07  0.00D+00 EMaxC= 1.00D-01 BMatC= 7.68D-11 BMatP= 6.71D-10
 IDIUse=1 WtCom= 1.00D+00 WtEn= 0.00D+00
 Coeff-Com:  0.135D-05-0.305D-04-0.666D-04 0.184D-03 0.111D-02-0.232D-02
 Coeff-Com: -0.426D-02 0.538D-02 0.430D-01-0.114D+00-0.290D+00 0.136D+01
 Coeff:      0.135D-05-0.305D-04-0.666D-04 0.184D-03 0.111D-02-0.232D-02
 Coeff:     -0.426D-02 0.538D-02 0.430D-01-0.114D+00-0.290D+00 0.136D+01
 Gap=     0.502 Goal=   None    Shift=    0.000
 RMSDP=7.77D-08 MaxDP=2.83D-06 DE=-1.89D-09 OVMax= 7.78D-06

 Cycle  13  Pass 1  IDiag  1:
 E= -279.501770776566     Delta-E=       -0.000000000267 Rises=F Damp=F
 DIIS: error= 1.66D-07 at cycle  13 NSaved=  13.
 NSaved=13 IEnMin=13 EnMin= -279.501770776566     IErMin=13 ErrMin= 1.66D-07
 ErrMax= 1.66D-07  0.00D+00 EMaxC= 1.00D-01 BMatC= 6.02D-12 BMatP= 7.68D-11
 IDIUse=1 WtCom= 1.00D+00 WtEn= 0.00D+00
 Coeff-Com:  0.137D-05-0.144D-04-0.232D-04-0.100D-03 0.106D-03 0.879D-03
 Coeff-Com: -0.805D-03-0.370D-02-0.326D-03 0.473D-01-0.324D-01-0.379D+00
 Coeff-Com:  0.137D+01
 Coeff:      0.137D-05-0.144D-04-0.232D-04-0.100D-03 0.106D-03 0.879D-03
 Coeff:     -0.805D-03-0.370D-02-0.326D-03 0.473D-01-0.324D-01-0.379D+00
 Coeff:      0.137D+01
 Gap=     0.502 Goal=   None    Shift=    0.000
 RMSDP=2.59D-08 MaxDP=5.73D-07 DE=-2.67D-10 OVMax= 3.55D-06

 Cycle  14  Pass 1  IDiag  1:
 E= -279.501770776595     Delta-E=       -0.000000000028 Rises=F Damp=F
 DIIS: error= 9.22D-08 at cycle  14 NSaved=  14.
 NSaved=14 IEnMin=14 EnMin= -279.501770776595     IErMin=14 ErrMin= 9.22D-08
 ErrMax= 9.22D-08  0.00D+00 EMaxC= 1.00D-01 BMatC= 1.04D-12 BMatP= 6.02D-12
 IDIUse=1 WtCom= 1.00D+00 WtEn= 0.00D+00
 Coeff-Com: -0.477D-06 0.678D-05 0.117D-04 0.191D-04-0.141D-03-0.435D-04
 Coeff-Com:  0.566D-03 0.752D-03-0.371D-02-0.379D-02 0.312D-01 0.658D-02
 Coeff-Com: -0.454D+00 0.142D+01
 Coeff:     -0.477D-06 0.678D-05 0.117D-04 0.191D-04-0.141D-03-0.435D-04
 Coeff:      0.566D-03 0.752D-03-0.371D-02-0.379D-02 0.312D-01 0.658D-02
 Coeff:     -0.454D+00 0.142D+01
 Gap=     0.502 Goal=   None    Shift=    0.000
 RMSDP=1.17D-08 MaxDP=3.28D-07 DE=-2.85D-11 OVMax= 2.05D-06

 Cycle  15  Pass 1  IDiag  1:
 E= -279.501770776600     Delta-E=       -0.000000000006 Rises=F Damp=F
 DIIS: error= 6.03D-08 at cycle  15 NSaved=  15.
 NSaved=15 IEnMin=15 EnMin= -279.501770776600     IErMin=15 ErrMin= 6.03D-08
 ErrMax= 6.03D-08  0.00D+00 EMaxC= 1.00D-01 BMatC= 3.52D-13 BMatP= 1.04D-12
 IDIUse=1 WtCom= 1.00D+00 WtEn= 0.00D+00
 Coeff-Com:  0.798D-07-0.193D-05-0.486D-05 0.872D-05 0.947D-04-0.175D-03
 Coeff-Com: -0.268D-03 0.190D-03 0.320D-02-0.778D-02-0.185D-01 0.909D-01
 Coeff-Com:  0.233D-01-0.120D+01 0.211D+01
 Coeff:      0.798D-07-0.193D-05-0.486D-05 0.872D-05 0.947D-04-0.175D-03
 Coeff:     -0.268D-03 0.190D-03 0.320D-02-0.778D-02-0.185D-01 0.909D-01
 Coeff:      0.233D-01-0.120D+01 0.211D+01
 Gap=     0.502 Goal=   None    Shift=    0.000
 RMSDP=1.15D-08 MaxDP=3.41D-07 DE=-5.51D-12 OVMax= 2.11D-06

 Cycle  16  Pass 1  IDiag  1:
 E= -279.501770776602     Delta-E=       -0.000000000002 Rises=F Damp=F
 DIIS: error= 2.26D-08 at cycle  16 NSaved=  16.
 NSaved=16 IEnMin=16 EnMin= -279.501770776602     IErMin=16 ErrMin= 2.26D-08
 ErrMax= 2.26D-08  0.00D+00 EMaxC= 1.00D-01 BMatC= 5.22D-14 BMatP= 3.52D-13
 IDIUse=1 WtCom= 1.00D+00 WtEn= 0.00D+00
 Coeff-Com:  0.565D-07-0.694D-06-0.212D-06-0.903D-05-0.788D-05 0.786D-04
 Coeff-Com: -0.563D-06-0.259D-03-0.494D-03 0.389D-02 0.536D-03-0.412D-01
 Coeff-Com:  0.115D+00 0.120D+00-0.844D+00 0.165D+01
 Coeff:      0.565D-07-0.694D-06-0.212D-06-0.903D-05-0.788D-05 0.786D-04
 Coeff:     -0.563D-06-0.259D-03-0.494D-03 0.389D-02 0.536D-03-0.412D-01
 Coeff:      0.115D+00 0.120D+00-0.844D+00 0.165D+01
 Gap=     0.502 Goal=   None    Shift=    0.000
 RMSDP=5.09D-09 MaxDP=1.52D-07 DE=-1.88D-12 OVMax= 9.51D-07

 SCF Done:  E(RHF) =  -279.501770777     A.U. after   16 cycles
            NFock= 16  Conv=0.51D-08     -V/T= 2.0024
 KE= 2.788454925828D+02 PE=-8.950785734640D+02 EE= 2.198551692182D+02
 Leave Link  502 at Mon Feb 14 22:13:36 2022, MaxMem= 16106127360 cpu:              46.0 elap:               8.4
 (Enter /sw/contrib/gaussian/g16/B01/g16/l801.exe)
 ExpMin= 2.53D-02 ExpMax= 1.53D+04 ExpMxC= 5.22D+02 IAcc=3 IRadAn=         5 AccDes= 0.00D+00
 HarFok:  IExCor=  205 AccDes= 0.00D+00 IRadAn=         5 IDoV=-2 UseB2=F ITyADJ=14
 ICtDFT= 12500011 ScaDFX=  1.000000  1.000000  1.000000  1.000000
 Largest valence mixing into a core orbital is  2.08D-04
 Largest core mixing into a valence orbital is  3.63D-05
 Range of M.O.s used for correlation:     5   207
 NBasis=   207 NAE=    16 NBE=    16 NFC=     4 NFV=     0
 NROrb=    203 NOA=    12 NOB=    12 NVA=   191 NVB=   191

 **** Warning!!: The largest alpha MO coefficient is  0.17875253D+02

 Leave Link  801 at Mon Feb 14 22:13:36 2022, MaxMem= 16106127360 cpu:               2.1 elap:               0.1
 (Enter /sw/contrib/gaussian/g16/B01/g16/l906.exe)
 Frozen-core derivative calculation, NFC=   4 NFV=   0.
 FulOut=F Deriv=T AODrv=F NAtomX=     5
   MMem=          76  MDisk=          12 MDiskD=          12
  W3Min=      811440 MinDsk=     1524655 NBas6D=         245
 NBas2D=       30762    NTT=       30135    LW2=     3500000
    MDV= 16105643539 MDiskM=      328645 NBas2p=       30466
 Fully in-core method, ICMem=   960157634.
 IMap=   1   2   3   4   5   6   7   8   9  10  11  12  13  14  15  16
 JobTyp=1 Pass  1 fully in-core, NPsUse= 28.
 Compute canonical integrals.
 FoFCou: FMM=F IPFlag=           0 FMFlag=           0 FMFlg1=           0
         NFxFlg=           0 DoJE=F BraDBF=F KetDBF=F FulRan=T
         wScrn=  0.000000 ICntrl=       600 IOpCl=  1 I1Cent=           0 NGrid=           0
         NMat0=    1 NMatS0=  30762 NMatT0=    0 NMatD0=    1 NMtDS0=    0 NMtDT0=    0
 Symmetry not used in FoFCou.
 Spin components of T(2) and E(2):
     alpha-alpha T2 =       0.3402668526D-01 E2=     -0.1224098301D+00
     alpha-beta  T2 =       0.1868559013D+00 E2=     -0.7002568022D+00
     beta-beta   T2 =       0.3402668526D-01 E2=     -0.1224098301D+00
 The integrals were generated   1 times.
 ANorm=    0.1120227330D+01
 E2 =    -0.9450764623D+00 EUMP2 =    -0.28044684723894D+03
 Leave Link  906 at Mon Feb 14 22:13:45 2022, MaxMem= 16106127360 cpu:             252.0 elap:               9.0
 (Enter /sw/contrib/gaussian/g16/B01/g16/l1002.exe)
 Minotr:  Closed shell wavefunction.
          Computing MP2/KS-MP2 derivatives.
          Using Z-Vector for PSCF gradient.
          Skipping F1 and S1 gradient terms here.
          Frozen-core window.
          Direct CPHF calculation.
          Differentiating once with respect to electric field.
                with respect to dipole field.
          Electric field/nuclear overlap derivatives assumed to be zero.
          Requested convergence is 1.0D-10 RMS, and 1.0D-09 maximum.
          NewPWx=F KeepS1=T KeepF1=T KeepIn=T MapXYZ=F SortEE=F KeepMc=T.
 Keep R1 ints in memory in canonical form, NReq=245621348.
 FoFCou: FMM=F IPFlag=           0 FMFlag=           0 FMFlg1=           0
         NFxFlg=           0 DoJE=F BraDBF=F KetDBF=F FulRan=T
         wScrn=  0.000000 ICntrl=       600 IOpCl=  0 I1Cent=           0 NGrid=           0
         NMat0=    1 NMatS0=  21528 NMatT0=    0 NMatD0=    1 NMtDS0=    0 NMtDT0=    0
 Symmetry not used in FoFCou.
 Two-electron integral symmetry not used.
          MDV=   16106127360 using IRadAn=       5.
          Solving linear equations separately, MaxMat=       0.
          There are     1 degrees of freedom in the 1st order CPHF.  IDoFFX=0 NUNeed=     1.
 LinEq1:  Iter=  0 NonCon=     1 RMS=5.96D-03 Max=1.30D-01 NDo=     1
 AX will form     1 AO Fock derivatives at one time.
 LinEq1:  Iter=  1 NonCon=     1 RMS=1.90D-03 Max=3.76D-02 NDo=     1
 LinEq1:  Iter=  2 NonCon=     1 RMS=8.67D-04 Max=1.29D-02 NDo=     1
 LinEq1:  Iter=  3 NonCon=     1 RMS=3.86D-04 Max=7.66D-03 NDo=     1
 LinEq1:  Iter=  4 NonCon=     1 RMS=1.19D-04 Max=1.75D-03 NDo=     1
 LinEq1:  Iter=  5 NonCon=     1 RMS=4.55D-05 Max=7.11D-04 NDo=     1
 LinEq1:  Iter=  6 NonCon=     1 RMS=2.04D-05 Max=2.36D-04 NDo=     1
 LinEq1:  Iter=  7 NonCon=     1 RMS=8.23D-06 Max=1.58D-04 NDo=     1
 LinEq1:  Iter=  8 NonCon=     1 RMS=3.59D-06 Max=4.49D-05 NDo=     1
 LinEq1:  Iter=  9 NonCon=     1 RMS=1.05D-06 Max=2.09D-05 NDo=     1
 LinEq1:  Iter= 10 NonCon=     1 RMS=2.67D-07 Max=7.60D-06 NDo=     1
 LinEq1:  Iter= 11 NonCon=     1 RMS=7.64D-08 Max=1.90D-06 NDo=     1
 LinEq1:  Iter= 12 NonCon=     1 RMS=2.00D-08 Max=2.44D-07 NDo=     1
 LinEq1:  Iter= 13 NonCon=     1 RMS=3.86D-09 Max=4.11D-08 NDo=     1
 LinEq1:  Iter= 14 NonCon=     1 RMS=6.24D-10 Max=9.92D-09 NDo=     1
 LinEq1:  Iter= 15 NonCon=     1 RMS=1.35D-10 Max=2.21D-09 NDo=     1
 LinEq1:  Iter= 16 NonCon=     0 RMS=3.46D-11 Max=4.55D-10 NDo=     1
 Linear equations converged to 1.000D-10 1.000D-09 after    16 iterations.
 End of Minotr F.D. properties file   721 does not exist.
 End of Minotr F.D. properties file   722 does not exist.
 End of Minotr F.D. properties file   788 does not exist.
 Leave Link 1002 at Mon Feb 14 22:13:53 2022, MaxMem= 16106127360 cpu:              38.5 elap:               8.1
 (Enter /sw/contrib/gaussian/g16/B01/g16/l601.exe)
 Copying SCF densities to generalized density rwf, IOpCl= 0 IROHF=0.

 **********************************************************************

            Population analysis using the MP2 Density.

 **********************************************************************

 Orbital symmetries:
       Occupied  (A) (A) (A) (A) (A) (A) (A) (A) (A) (A) (A) (A)
                 (A) (A) (A) (A)
       Virtual   (A) (A) (A) (A) (A) (A) (A) (A) (A) (A) (A) (A)
                 (A) (A) (A) (A) (A) (A) (A) (A) (A) (A) (A) (A)
                 (A) (A) (A) (A) (A) (A) (A) (A) (A) (A) (A) (A)
                 (A) (A) (A) (A) (A) (A) (A) (A) (A) (A) (A) (A)
                 (A) (A) (A) (A) (A) (A) (A) (A) (A) (A) (A) (A)
                 (A) (A) (A) (A) (A) (A) (A) (A) (A) (A) (A) (A)
                 (A) (A) (A) (A) (A) (A) (A) (A) (A) (A) (A) (A)
                 (A) (A) (A) (A) (A) (A) (A) (A) (A) (A) (A) (A)
                 (A) (A) (A) (A) (A) (A) (A) (A) (A) (A) (A) (A)
                 (A) (A) (A) (A) (A) (A) (A) (A) (A) (A) (A) (A)
                 (A) (A) (A) (A) (A) (A) (A) (A) (A) (A) (A) (A)
                 (A) (A) (A) (A) (A) (A) (A) (A) (A) (A) (A) (A)
                 (A) (A) (A) (A) (A) (A) (A) (A) (A) (A) (A) (A)
                 (A) (A) (A) (A) (A) (A) (A) (A) (A) (A) (A) (A)
                 (A) (A) (A) (A) (A) (A) (A) (A) (A) (A) (A) (A)
                 (A) (A) (A) (A) (A) (A) (A) (A) (A) (A) (A)
 The electronic state is 1-A.
 Alpha  occ. eigenvalues --  -20.69100 -20.68427 -20.66009 -15.81274  -1.62403
 Alpha  occ. eigenvalues --   -1.49581  -1.25443  -0.94808  -0.77259  -0.75939
 Alpha  occ. eigenvalues --   -0.71256  -0.67897  -0.62005  -0.58900  -0.48645
 Alpha  occ. eigenvalues --   -0.47192
 Alpha virt. eigenvalues --    0.02960   0.07165   0.08593   0.10174   0.13270
 Alpha virt. eigenvalues --    0.13486   0.14395   0.15446   0.17816   0.19412
 Alpha virt. eigenvalues --    0.19941   0.20655   0.22081   0.23538   0.23729
 Alpha virt. eigenvalues --    0.26671   0.29273   0.30085   0.31166   0.34348
 Alpha virt. eigenvalues --    0.35281   0.38746   0.41826   0.42963   0.52718
 Alpha virt. eigenvalues --    0.53062   0.55857   0.58117   0.62596   0.63816
 Alpha virt. eigenvalues --    0.67387   0.68377   0.70675   0.71264   0.72009
 Alpha virt. eigenvalues --    0.73199   0.74711   0.78663   0.79411   0.81046
 Alpha virt. eigenvalues --    0.81378   0.83326   0.86780   0.90835   0.91691
 Alpha virt. eigenvalues --    0.93225   0.95573   0.97209   0.98801   1.01566
 Alpha virt. eigenvalues --    1.05447   1.05750   1.08339   1.11484   1.13128
 Alpha virt. eigenvalues --    1.19721   1.21933   1.23378   1.33734   1.35073
 Alpha virt. eigenvalues --    1.38817   1.45503   1.49142   1.50841   1.53730
 Alpha virt. eigenvalues --    1.56719   1.58054   1.60572   1.66493   1.66685
 Alpha virt. eigenvalues --    1.70535   1.78990   1.82994   1.83667   1.88037
 Alpha virt. eigenvalues --    1.90620   1.95615   1.98361   2.02274   2.07762
 Alpha virt. eigenvalues --    2.11662   2.12834   2.15455   2.22197   2.25885
 Alpha virt. eigenvalues --    2.27092   2.28774   2.31243   2.34365   2.38747
 Alpha virt. eigenvalues --    2.40697   2.44649   2.45381   2.46597   2.47656
 Alpha virt. eigenvalues --    2.50558   2.58953   2.59817   2.61905   2.62591
 Alpha virt. eigenvalues --    2.63723   2.66600   2.75205   2.82790   2.84864
 Alpha virt. eigenvalues --    2.88800   2.89778   2.91894   2.95968   3.02146
 Alpha virt. eigenvalues --    3.07456   3.12018   3.20458   3.22872   3.31604
 Alpha virt. eigenvalues --    3.34092   3.51442   3.64684   3.83756   3.84788
 Alpha virt. eigenvalues --    4.13790   4.16409   4.19920   4.25494   4.34255
 Alpha virt. eigenvalues --    4.39384   4.47286   4.52299   4.65362   4.71104
 Alpha virt. eigenvalues --    4.80434   4.82320   4.82677   4.89668   5.02273
 Alpha virt. eigenvalues --    5.07345   5.10179   5.14558   5.18241   5.24825
 Alpha virt. eigenvalues --    5.27166   5.30501   5.33003   5.35257   5.60144
 Alpha virt. eigenvalues --    5.67359   5.76334   5.83161   5.95514   6.16933
 Alpha virt. eigenvalues --    6.31121   6.34075   6.39280   6.49414   6.50517
 Alpha virt. eigenvalues --    6.62012   6.65763   6.70487   6.74914   6.76889
 Alpha virt. eigenvalues --    6.83451   6.89835   7.01196   7.05467   7.05769
 Alpha virt. eigenvalues --    7.09340   7.12649   7.14686   7.18764   7.22486
 Alpha virt. eigenvalues --    7.23907   7.30474   7.32276   7.35460   7.39373
 Alpha virt. eigenvalues --    7.42898   7.48589   7.60671   7.61823   7.63168
 Alpha virt. eigenvalues --    7.67239   7.78600   7.88473   8.09184   8.31237
 Alpha virt. eigenvalues --    8.40174   8.54187  13.38633  14.39865  15.16083
 Alpha virt. eigenvalues --   16.15074
          Condensed to atoms (all electrons):
               1          2          3          4          5
     1  H    0.590157   0.128429   0.020152   0.011761  -0.000611
     2  O    0.128429   8.320682  -0.172676  -0.089974   0.015188
     3  O    0.020152  -0.172676   8.467736  -0.129432  -0.038717
     4  N    0.011761  -0.089974  -0.129432   6.970486  -0.054772
     5  O   -0.000611   0.015188  -0.038717  -0.054772   8.272244
 Mulliken charges:
               1
     1  H    0.250112
     2  O   -0.201648
     3  O   -0.147063
     4  N    0.291932
     5  O   -0.193332
 Sum of Mulliken charges =  -0.00000
 Mulliken charges with hydrogens summed into heavy atoms:
               1
     2  O    0.048464
     3  O   -0.147063
     4  N    0.291932
     5  O   -0.193332
 Electronic spatial extent (au):  <R**2>=            252.8516
 Charge=             -0.0000 electrons
 Dipole moment (field-independent basis, Debye):
    X=              1.2068    Y=              0.7764    Z=              0.2594  Tot=              1.4583
 Quadrupole moment (field-independent basis, Debye-Ang):
   XX=            -18.0605   YY=            -23.1137   ZZ=            -21.9570
   XY=              2.7436   XZ=              0.6837   YZ=              0.2093
 Traceless Quadrupole moment (field-independent basis, Debye-Ang):
   XX=              2.9832   YY=             -2.0700   ZZ=             -0.9132
   XY=              2.7436   XZ=              0.6837   YZ=              0.2093
 Octapole moment (field-independent basis, Debye-Ang**2):
  XXX=             17.9535  YYY=              1.7521  ZZZ=              0.0859  XYY=              1.0465
  XXY=              6.0658  XXZ=              1.6371  XZZ=             -1.6618  YZZ=              0.2656
  YYZ=              0.0338  XYZ=              0.3574
 Hexadecapole moment (field-independent basis, Debye-Ang**3):
 XXXX=           -190.8174 YYYY=            -41.0869 ZZZZ=            -18.2782 XXXY=             11.7741
 XXXZ=              4.1483 YYYX=              0.9706 YYYZ=              0.1929 ZZZX=              0.2557
 ZZZY=              0.1397 XXYY=            -42.5434 XXZZ=            -41.4033 YYZZ=             -9.8689
 XXYZ=              0.8479 YYXZ=              0.1805 ZZXY=              0.5085
 N-N= 1.168761408863D+02 E-N=-8.958626912039D+02  KE= 2.801977516776D+02
 No NMR shielding tensors so no spin-rotation constants.
 Leave Link  601 at Mon Feb 14 22:13:53 2022, MaxMem= 16106127360 cpu:               4.2 elap:               0.2
 (Enter /sw/contrib/gaussian/g16/B01/g16/l9999.exe)
 1\1\GINC-N2126\SP\RMP2-FC\Aug-CC-pVTZ\H1N1O3\CGAVINH\14-Feb-2022\0\\#p
  SP mp2/aug-cc-pvtz density=current\\title\\0,1\H\O,1,0.96897556\O,2,1
 .45491931,1,97.59494903\N,3,1.45878406,2,102.29752444,1,189.81162037,0
 \O,4,1.17072885,3,109.06955123,2,180.,0\\Version=ES64L-G16RevB.01\Stat
 e=1-A\HF=-279.5017708\MP2=-280.4468472\RMSD=5.085e-09\Dipole=-0.146530
 2,-0.0198475,-0.5543578\Quadrupole=-1.5028989,-0.7519848,2.2548837,-0.
 0621142,2.0875707,0.0384075\PG=C01 [X(H1N1O3)]\\@


 You can't act like a skunk without someone's getting wind of it.
 -- Lorene Workman
 Job cpu time:       0 days  0 hours  6 minutes  6.6 seconds.
 Elapsed time:       0 days  0 hours  0 minutes 27.0 seconds.
 File lengths (MBytes):  RWF=     21 Int=      0 D2E=      0 Chk=      8 Scr=      1
 Normal termination of Gaussian 16 at Mon Feb 14 22:13:53 2022.
