 Entering Gaussian System, Link 0=g16
 Input=hoono_a2_103p9239.gjf
 Output=hoono_a2_103p9239.log
 Initial command:
 /sw/contrib/gaussian/g16/B01/g16/l1.exe "/scr/Gau-18356.inp" -scrdir="/scr/"
 Entering Link 1 = /sw/contrib/gaussian/g16/B01/g16/l1.exe PID=     18357.
  
 Copyright (c) 1988-2017, Gaussian, Inc.  All Rights Reserved.
  
 This is part of the Gaussian(R) 16 program.  It is based on
 the Gaussian(R) 09 system (copyright 2009, Gaussian, Inc.),
 the Gaussian(R) 03 system (copyright 2003, Gaussian, Inc.),
 the Gaussian(R) 98 system (copyright 1998, Gaussian, Inc.),
 the Gaussian(R) 94 system (copyright 1995, Gaussian, Inc.),
 the Gaussian 92(TM) system (copyright 1992, Gaussian, Inc.),
 the Gaussian 90(TM) system (copyright 1990, Gaussian, Inc.),
 the Gaussian 88(TM) system (copyright 1988, Gaussian, Inc.),
 the Gaussian 86(TM) system (copyright 1986, Carnegie Mellon
 University), and the Gaussian 82(TM) system (copyright 1983,
 Carnegie Mellon University). Gaussian is a federally registered
 trademark of Gaussian, Inc.
  
 This software contains proprietary and confidential information,
 including trade secrets, belonging to Gaussian, Inc.
  
 This software is provided under written license and may be
 used, copied, transmitted, or stored only in accord with that
 written license.
  
 The following legend is applicable only to US Government
 contracts under FAR:
  
                    RESTRICTED RIGHTS LEGEND
  
 Use, reproduction and disclosure by the US Government is
 subject to restrictions as set forth in subparagraphs (a)
 and (c) of the Commercial Computer Software - Restricted
 Rights clause in FAR 52.227-19.
  
 Gaussian, Inc.
 340 Quinnipiac St., Bldg. 40, Wallingford CT 06492
  
  
 ---------------------------------------------------------------
 Warning -- This program may not be used in any manner that
 competes with the business of Gaussian, Inc. or will provide
 assistance to any competitor of Gaussian, Inc.  The licensee
 of this program is prohibited from giving any competitor of
 Gaussian, Inc. access to this program.  By using this program,
 the user acknowledges that Gaussian, Inc. is engaged in the
 business of creating and licensing software in the field of
 computational chemistry and represents and warrants to the
 licensee that it is not a competitor of Gaussian, Inc. and that
 it will not use this program in any manner prohibited above.
 ---------------------------------------------------------------
  

 Cite this work as:
 Gaussian 16, Revision B.01,
 M. J. Frisch, G. W. Trucks, H. B. Schlegel, G. E. Scuseria, 
 M. A. Robb, J. R. Cheeseman, G. Scalmani, V. Barone, 
 G. A. Petersson, H. Nakatsuji, X. Li, M. Caricato, A. V. Marenich, 
 J. Bloino, B. G. Janesko, R. Gomperts, B. Mennucci, H. P. Hratchian, 
 J. V. Ortiz, A. F. Izmaylov, J. L. Sonnenberg, D. Williams-Young, 
 F. Ding, F. Lipparini, F. Egidi, J. Goings, B. Peng, A. Petrone, 
 T. Henderson, D. Ranasinghe, V. G. Zakrzewski, J. Gao, N. Rega, 
 G. Zheng, W. Liang, M. Hada, M. Ehara, K. Toyota, R. Fukuda, 
 J. Hasegawa, M. Ishida, T. Nakajima, Y. Honda, O. Kitao, H. Nakai, 
 T. Vreven, K. Throssell, J. A. Montgomery, Jr., J. E. Peralta, 
 F. Ogliaro, M. J. Bearpark, J. J. Heyd, E. N. Brothers, K. N. Kudin, 
 V. N. Staroverov, T. A. Keith, R. Kobayashi, J. Normand, 
 K. Raghavachari, A. P. Rendell, J. C. Burant, S. S. Iyengar, 
 J. Tomasi, M. Cossi, J. M. Millam, M. Klene, C. Adamo, R. Cammi, 
 J. W. Ochterski, R. L. Martin, K. Morokuma, O. Farkas, 
 J. B. Foresman, and D. J. Fox, Gaussian, Inc., Wallingford CT, 2016.
 
 ******************************************
 Gaussian 16:  ES64L-G16RevB.01 20-Dec-2017
                14-Feb-2022 
 ******************************************
 %nproc=28
 Will use up to   28 processors via shared memory.
 %mem=120GB
 %chk=hoono_a2_103p9239.chk
 -------------------------------------
 #p SP mp2/aug-cc-pvtz density=current
 -------------------------------------
 1/30=1,38=1,172=1/1;
 2/12=2,17=6,18=5,40=1/2;
 3/5=16,6=1,7=10,11=9,25=1,30=1,71=1/1,2,3;
 4//1;
 5/5=2,38=5/2;
 8/6=4,10=1/1;
 9/15=1,16=-3/6;
 10/5=1,13=10/2;
 6/7=2,8=2,9=2,10=2,22=-1/1;
 99/5=1,9=1/99;
 Leave Link    1 at Mon Feb 14 22:12:13 2022, MaxMem= 16106127360 cpu:               3.1 elap:               0.1
 (Enter /sw/contrib/gaussian/g16/B01/g16/l101.exe)
 -----
 title
 -----
 Symbolic Z-matrix:
 Charge =  0 Multiplicity = 1
 H
 O                    1    r1
 O                    2    r2       1    a1
 N                    3    r3       2    a2       1    d1       0
 O                    4    r4       3    a3       2    d2       0
       Variables:
  r1                    0.96898                  
  r2                    1.45492                  
  r3                    1.45878                  
  r4                    1.17073                  
  a1                   97.59495                  
  a2                  103.92393                  
  a3                  109.06955                  
  d1                  180.                       
  d2                  180.                       
 
 ITRead=  0  0  0  0  0
 MicOpt= -1 -1 -1 -1 -1
 NAtoms=      5 NQM=        5 NQMF=       0 NMMI=      0 NMMIF=      0
                NMic=       0 NMicF=      0.
                    Isotopes and Nuclear Properties:
 (Nuclear quadrupole moments (NQMom) in fm**2, nuclear magnetic moments (NMagM)
  in nuclear magnetons)

  Atom         1           2           3           4           5
 IAtWgt=           1          16          16          14          16
 AtmWgt=   1.0078250  15.9949146  15.9949146  14.0030740  15.9949146
 NucSpn=           1           0           0           2           0
 AtZEff=  -0.0000000  -0.0000000  -0.0000000  -0.0000000  -0.0000000
 NQMom=    0.0000000   0.0000000   0.0000000   2.0440000   0.0000000
 NMagM=    2.7928460   0.0000000   0.0000000   0.4037610   0.0000000
 AtZNuc=   1.0000000   8.0000000   8.0000000   7.0000000   8.0000000
 Leave Link  101 at Mon Feb 14 22:12:13 2022, MaxMem= 16106127360 cpu:               2.2 elap:               0.1
 (Enter /sw/contrib/gaussian/g16/B01/g16/l202.exe)
                          Input orientation:                          
 ---------------------------------------------------------------------
 Center     Atomic      Atomic             Coordinates (Angstroms)
 Number     Number       Type             X           Y           Z
 ---------------------------------------------------------------------
      1          1           0        0.000000    0.000000    0.000000
      2          8           0        0.000000    0.000000    0.968976
      3          8           0        1.442156    0.000000    1.161271
      4          7           0        1.602968    0.000000    2.611164
      5          8           0        2.744872    0.000000    2.869353
 ---------------------------------------------------------------------
                    Distance matrix (angstroms):
                    1          2          3          4          5
     1  H    0.000000
     2  O    0.968976   0.000000
     3  O    1.851584   1.454919   0.000000
     4  N    3.063933   2.294839   1.458784   0.000000
     5  O    3.970832   3.338526   2.148165   1.170729   0.000000
 Stoichiometry    HNO3
 Framework group  CS[SG(HNO3)]
 Deg. of freedom     7
 Full point group                 CS      NOp   2
 Largest Abelian subgroup         CS      NOp   2
 Largest concise Abelian subgroup C1      NOp   1
                         Standard orientation:                         
 ---------------------------------------------------------------------
 Center     Atomic      Atomic             Coordinates (Angstroms)
 Number     Number       Type             X           Y           Z
 ---------------------------------------------------------------------
      1          1           0        1.517428    1.722362    0.000000
      2          8           0        1.451862    0.755607    0.000000
      3          8           0       -0.000000    0.661337    0.000000
      4          7           0       -0.258551   -0.774352   -0.000000
      5          8           0       -1.415308   -0.954682   -0.000000
 ---------------------------------------------------------------------
 Rotational constants (GHZ):          56.3723925           4.9519637           4.5520909
 Leave Link  202 at Mon Feb 14 22:12:13 2022, MaxMem= 16106127360 cpu:               0.6 elap:               0.0
 (Enter /sw/contrib/gaussian/g16/B01/g16/l301.exe)
 Standard basis: Aug-CC-pVTZ (5D, 7F)
 Ernie: Thresh=  0.10000D-02 Tol=  0.10000D-05 Strict=F.
 Ernie:  12 primitive shells out of 131 were deleted.
 There are   166 symmetry adapted cartesian basis functions of A'  symmetry.
 There are    79 symmetry adapted cartesian basis functions of A"  symmetry.
 There are   136 symmetry adapted basis functions of A'  symmetry.
 There are    71 symmetry adapted basis functions of A"  symmetry.
   207 basis functions,   315 primitive gaussians,   245 cartesian basis functions
    16 alpha electrons       16 beta electrons
       nuclear repulsion energy       116.6581572937 Hartrees.
 IExCor=    0 DFT=F Ex=HF Corr=None ExCW=0 ScaHFX=  1.000000
 ScaDFX=  1.000000  1.000000  1.000000  1.000000 ScalE2=  1.000000  1.000000
 IRadAn=      5 IRanWt=     -1 IRanGd=            0 ICorTp=0 IEmpDi=  4
 NAtoms=    5 NActive=    5 NUniq=    5 SFac= 1.00D+00 NAtFMM=   60 NAOKFM=F Big=F
 Integral buffers will be    131072 words long.
 Raffenetti 1 integral format.
 Two-electron integral symmetry is turned on.
 Leave Link  301 at Mon Feb 14 22:12:14 2022, MaxMem= 16106127360 cpu:               1.4 elap:               0.1
 (Enter /sw/contrib/gaussian/g16/B01/g16/l302.exe)
 NPDir=0 NMtPBC=     1 NCelOv=     1 NCel=       1 NClECP=     1 NCelD=      1
         NCelK=      1 NCelE2=     1 NClLst=     1 CellRange=     0.0.
 One-electron integrals computed using PRISM.
 One-electron integral symmetry used in STVInt
 NBasis=   207 RedAO= T EigKep=  1.81D-04  NBF=   136    71
 NBsUse=   207 1.00D-06 EigRej= -1.00D+00 NBFU=   136    71
 Leave Link  302 at Mon Feb 14 22:12:14 2022, MaxMem= 16106127360 cpu:               4.5 elap:               0.2
 (Enter /sw/contrib/gaussian/g16/B01/g16/l303.exe)
 DipDrv:  MaxL=1.
 Leave Link  303 at Mon Feb 14 22:12:14 2022, MaxMem= 16106127360 cpu:               1.3 elap:               0.1
 (Enter /sw/contrib/gaussian/g16/B01/g16/l401.exe)
 ExpMin= 2.53D-02 ExpMax= 1.53D+04 ExpMxC= 5.22D+02 IAcc=3 IRadAn=         5 AccDes= 0.00D+00
 Harris functional with IExCor=  205 and IRadAn=       5 diagonalized for initial guess.
 HarFok:  IExCor=  205 AccDes= 0.00D+00 IRadAn=         5 IDoV= 1 UseB2=F ITyADJ=14
 ICtDFT=  3500011 ScaDFX=  1.000000  1.000000  1.000000  1.000000
 FoFCou: FMM=F IPFlag=           0 FMFlag=      100000 FMFlg1=           0
         NFxFlg=           0 DoJE=T BraDBF=F KetDBF=T FulRan=T
         wScrn=  0.000000 ICntrl=       500 IOpCl=  0 I1Cent=   200000004 NGrid=           0
         NMat0=    1 NMatS0=      1 NMatT0=    0 NMatD0=    1 NMtDS0=    0 NMtDT0=    0
 Petite list used in FoFCou.
 Harris En= -279.628876932403    
 JPrj=0 DoOrth=F DoCkMO=F.
 Initial guess orbital symmetries:
       Occupied  (A') (A') (A') (A') (A') (A') (A') (A') (A') (A')
                 (A") (A') (A') (A") (A") (A')
       Virtual   (A") (A') (A') (A') (A') (A') (A") (A') (A') (A')
                 (A") (A') (A") (A') (A') (A") (A') (A") (A') (A')
                 (A') (A') (A') (A') (A') (A") (A') (A") (A') (A')
                 (A") (A') (A") (A') (A') (A") (A') (A") (A') (A')
                 (A") (A') (A") (A') (A") (A') (A') (A') (A") (A")
                 (A') (A') (A') (A') (A") (A') (A") (A') (A") (A')
                 (A') (A') (A") (A') (A') (A") (A') (A") (A') (A')
                 (A") (A') (A') (A") (A") (A') (A') (A") (A') (A')
                 (A') (A") (A') (A") (A') (A") (A') (A") (A') (A')
                 (A') (A") (A') (A") (A') (A") (A") (A') (A') (A')
                 (A") (A') (A") (A') (A') (A") (A') (A') (A") (A')
                 (A") (A') (A') (A') (A") (A') (A') (A') (A") (A')
                 (A") (A') (A') (A") (A") (A') (A") (A') (A") (A')
                 (A') (A') (A') (A") (A") (A') (A") (A') (A') (A')
                 (A') (A") (A") (A') (A') (A") (A') (A') (A') (A')
                 (A") (A') (A') (A") (A') (A") (A') (A") (A') (A")
                 (A') (A") (A') (A") (A') (A") (A") (A") (A') (A')
                 (A") (A') (A") (A') (A") (A') (A") (A") (A') (A')
                 (A') (A') (A') (A') (A') (A') (A') (A') (A') (A')
                 (A')
 The electronic state of the initial guess is 1-A'.
 Leave Link  401 at Mon Feb 14 22:12:14 2022, MaxMem= 16106127360 cpu:               6.9 elap:               0.3
 (Enter /sw/contrib/gaussian/g16/B01/g16/l502.exe)
 Keep R1 ints in memory in symmetry-blocked form, NReq=348887737.
 FoFCou: FMM=F IPFlag=           0 FMFlag=           0 FMFlg1=           0
         NFxFlg=           0 DoJE=F BraDBF=F KetDBF=F FulRan=T
         wScrn=  0.000000 ICntrl=       600 IOpCl=  0 I1Cent=           0 NGrid=           0
         NMat0=    1 NMatS0=  21528 NMatT0=    0 NMatD0=    1 NMtDS0=    0 NMtDT0=    0
 Petite list used in FoFCou.
 Closed shell SCF:
 Using DIIS extrapolation, IDIIS=  1040.
 NGot= 16106127360 LenX= 15988850015 LenY= 15988789549
 Requested convergence on RMS density matrix=1.00D-08 within 128 cycles.
 Requested convergence on MAX density matrix=1.00D-06.
 Requested convergence on             energy=1.00D-06.
 No special actions if energy rises.

 Cycle   1  Pass 1  IDiag  1:
 E= -279.370684823052    
 DIIS: error= 2.47D-02 at cycle   1 NSaved=   1.
 NSaved= 1 IEnMin= 1 EnMin= -279.370684823052     IErMin= 1 ErrMin= 2.47D-02
 ErrMax= 2.47D-02  0.00D+00 EMaxC= 1.00D-01 BMatC= 4.38D-01 BMatP= 4.38D-01
 IDIUse=3 WtCom= 7.53D-01 WtEn= 2.47D-01
 Coeff-Com:  0.100D+01
 Coeff-En:   0.100D+01
 Coeff:      0.100D+01
 Gap=     0.512 Goal=   None    Shift=    0.000
 GapD=    0.512 DampG=2.000 DampE=0.500 DampFc=1.0000 IDamp=-1.
 RMSDP=1.62D-03 MaxDP=9.96D-02              OVMax= 1.12D-01

 Cycle   2  Pass 1  IDiag  1:
 E= -279.452592614572     Delta-E=       -0.081907791519 Rises=F Damp=F
 DIIS: error= 1.78D-02 at cycle   2 NSaved=   2.
 NSaved= 2 IEnMin= 2 EnMin= -279.452592614572     IErMin= 2 ErrMin= 1.78D-02
 ErrMax= 1.78D-02  0.00D+00 EMaxC= 1.00D-01 BMatC= 7.14D-02 BMatP= 4.38D-01
 IDIUse=3 WtCom= 8.22D-01 WtEn= 1.78D-01
 Coeff-Com:  0.194D+00 0.806D+00
 Coeff-En:   0.000D+00 0.100D+01
 Coeff:      0.160D+00 0.840D+00
 Gap=     0.529 Goal=   None    Shift=    0.000
 RMSDP=8.99D-04 MaxDP=3.73D-02 DE=-8.19D-02 OVMax= 6.93D-02

 Cycle   3  Pass 1  IDiag  1:
 E= -279.481530060101     Delta-E=       -0.028937445529 Rises=F Damp=F
 DIIS: error= 1.04D-02 at cycle   3 NSaved=   3.
 NSaved= 3 IEnMin= 3 EnMin= -279.481530060101     IErMin= 3 ErrMin= 1.04D-02
 ErrMax= 1.04D-02  0.00D+00 EMaxC= 1.00D-01 BMatC= 2.87D-02 BMatP= 7.14D-02
 IDIUse=3 WtCom= 8.96D-01 WtEn= 1.04D-01
 Coeff-Com: -0.330D-01 0.379D+00 0.654D+00
 Coeff-En:   0.000D+00 0.242D+00 0.758D+00
 Coeff:     -0.296D-01 0.365D+00 0.665D+00
 Gap=     0.510 Goal=   None    Shift=    0.000
 RMSDP=3.77D-04 MaxDP=1.55D-02 DE=-2.89D-02 OVMax= 3.81D-02

 Cycle   4  Pass 1  IDiag  1:
 E= -279.500603831521     Delta-E=       -0.019073771420 Rises=F Damp=F
 DIIS: error= 1.35D-03 at cycle   4 NSaved=   4.
 NSaved= 4 IEnMin= 4 EnMin= -279.500603831521     IErMin= 4 ErrMin= 1.35D-03
 ErrMax= 1.35D-03  0.00D+00 EMaxC= 1.00D-01 BMatC= 4.95D-04 BMatP= 2.87D-02
 IDIUse=3 WtCom= 9.87D-01 WtEn= 1.35D-02
 Coeff-Com: -0.117D-01 0.577D-01 0.159D+00 0.795D+00
 Coeff-En:   0.000D+00 0.000D+00 0.000D+00 0.100D+01
 Coeff:     -0.115D-01 0.570D-01 0.156D+00 0.798D+00
 Gap=     0.502 Goal=   None    Shift=    0.000
 RMSDP=9.05D-05 MaxDP=2.78D-03 DE=-1.91D-02 OVMax= 1.12D-02

 Cycle   5  Pass 1  IDiag  1:
 E= -279.501282713890     Delta-E=       -0.000678882369 Rises=F Damp=F
 DIIS: error= 7.52D-04 at cycle   5 NSaved=   5.
 NSaved= 5 IEnMin= 5 EnMin= -279.501282713890     IErMin= 5 ErrMin= 7.52D-04
 ErrMax= 7.52D-04  0.00D+00 EMaxC= 1.00D-01 BMatC= 8.77D-05 BMatP= 4.95D-04
 IDIUse=3 WtCom= 9.92D-01 WtEn= 7.52D-03
 Coeff-Com:  0.615D-02-0.727D-01-0.118D+00 0.214D-01 0.116D+01
 Coeff-En:   0.000D+00 0.000D+00 0.000D+00 0.000D+00 0.100D+01
 Coeff:      0.610D-02-0.722D-01-0.117D+00 0.212D-01 0.116D+01
 Gap=     0.502 Goal=   None    Shift=    0.000
 RMSDP=7.67D-05 MaxDP=2.11D-03 DE=-6.79D-04 OVMax= 1.12D-02

 Cycle   6  Pass 1  IDiag  1:
 E= -279.501600570034     Delta-E=       -0.000317856144 Rises=F Damp=F
 DIIS: error= 2.86D-04 at cycle   6 NSaved=   6.
 NSaved= 6 IEnMin= 6 EnMin= -279.501600570034     IErMin= 6 ErrMin= 2.86D-04
 ErrMax= 2.86D-04  0.00D+00 EMaxC= 1.00D-01 BMatC= 1.69D-05 BMatP= 8.77D-05
 IDIUse=3 WtCom= 9.97D-01 WtEn= 2.86D-03
 Coeff-Com:  0.576D-03 0.190D-02 0.500D-02-0.131D+00-0.234D+00 0.136D+01
 Coeff-En:   0.000D+00 0.000D+00 0.000D+00 0.000D+00 0.000D+00 0.100D+01
 Coeff:      0.574D-03 0.190D-02 0.499D-02-0.131D+00-0.233D+00 0.136D+01
 Gap=     0.502 Goal=   None    Shift=    0.000
 RMSDP=4.57D-05 MaxDP=1.26D-03 DE=-3.18D-04 OVMax= 5.60D-03

 Cycle   7  Pass 1  IDiag  1:
 E= -279.501674307905     Delta-E=       -0.000073737871 Rises=F Damp=F
 DIIS: error= 1.23D-04 at cycle   7 NSaved=   7.
 NSaved= 7 IEnMin= 7 EnMin= -279.501674307905     IErMin= 7 ErrMin= 1.23D-04
 ErrMax= 1.23D-04  0.00D+00 EMaxC= 1.00D-01 BMatC= 4.49D-06 BMatP= 1.69D-05
 IDIUse=3 WtCom= 9.99D-01 WtEn= 1.23D-03
 Coeff-Com: -0.950D-03 0.137D-01 0.266D-01-0.237D-01-0.285D+00 0.380D+00
 Coeff-Com:  0.889D+00
 Coeff-En:   0.000D+00 0.000D+00 0.000D+00 0.000D+00 0.000D+00 0.000D+00
 Coeff-En:   0.100D+01
 Coeff:     -0.949D-03 0.136D-01 0.266D-01-0.237D-01-0.285D+00 0.380D+00
 Coeff:      0.889D+00
 Gap=     0.502 Goal=   None    Shift=    0.000
 RMSDP=1.34D-05 MaxDP=3.83D-04 DE=-7.37D-05 OVMax= 1.56D-03

 Cycle   8  Pass 1  IDiag  1:
 E= -279.501683288805     Delta-E=       -0.000008980900 Rises=F Damp=F
 DIIS: error= 5.93D-05 at cycle   8 NSaved=   8.
 NSaved= 8 IEnMin= 8 EnMin= -279.501683288805     IErMin= 8 ErrMin= 5.93D-05
 ErrMax= 5.93D-05  0.00D+00 EMaxC= 1.00D-01 BMatC= 6.15D-07 BMatP= 4.49D-06
 IDIUse=1 WtCom= 1.00D+00 WtEn= 0.00D+00
 Coeff-Com: -0.451D-03 0.347D-02 0.764D-02 0.275D-01-0.411D-01-0.198D+00
 Coeff-Com:  0.178D+00 0.102D+01
 Coeff:     -0.451D-03 0.347D-02 0.764D-02 0.275D-01-0.411D-01-0.198D+00
 Coeff:      0.178D+00 0.102D+01
 Gap=     0.502 Goal=   None    Shift=    0.000
 RMSDP=6.96D-06 MaxDP=2.04D-04 DE=-8.98D-06 OVMax= 7.54D-04

 Cycle   9  Pass 1  IDiag  1:
 E= -279.501685086690     Delta-E=       -0.000001797885 Rises=F Damp=F
 DIIS: error= 1.49D-05 at cycle   9 NSaved=   9.
 NSaved= 9 IEnMin= 9 EnMin= -279.501685086690     IErMin= 9 ErrMin= 1.49D-05
 ErrMax= 1.49D-05  0.00D+00 EMaxC= 1.00D-01 BMatC= 7.14D-08 BMatP= 6.15D-07
 IDIUse=1 WtCom= 1.00D+00 WtEn= 0.00D+00
 Coeff-Com:  0.122D-03-0.173D-02-0.309D-02-0.187D-02 0.342D-01-0.957D-03
 Coeff-Com: -0.170D+00-0.923D-01 0.124D+01
 Coeff:      0.122D-03-0.173D-02-0.309D-02-0.187D-02 0.342D-01-0.957D-03
 Coeff:     -0.170D+00-0.923D-01 0.124D+01
 Gap=     0.502 Goal=   None    Shift=    0.000
 RMSDP=1.96D-06 MaxDP=6.66D-05 DE=-1.80D-06 OVMax= 1.77D-04

 Cycle  10  Pass 1  IDiag  1:
 E= -279.501685250585     Delta-E=       -0.000000163895 Rises=F Damp=F
 DIIS: error= 3.96D-06 at cycle  10 NSaved=  10.
 NSaved=10 IEnMin=10 EnMin= -279.501685250585     IErMin=10 ErrMin= 3.96D-06
 ErrMax= 3.96D-06  0.00D+00 EMaxC= 1.00D-01 BMatC= 5.65D-09 BMatP= 7.14D-08
 IDIUse=1 WtCom= 1.00D+00 WtEn= 0.00D+00
 Coeff-Com:  0.321D-04-0.254D-03-0.346D-03-0.275D-02 0.182D-02 0.200D-01
 Coeff-Com: -0.145D-01-0.750D-01-0.761D-01 0.115D+01
 Coeff:      0.321D-04-0.254D-03-0.346D-03-0.275D-02 0.182D-02 0.200D-01
 Coeff:     -0.145D-01-0.750D-01-0.761D-01 0.115D+01
 Gap=     0.502 Goal=   None    Shift=    0.000
 RMSDP=5.13D-07 MaxDP=2.14D-05 DE=-1.64D-07 OVMax= 4.19D-05

 Cycle  11  Pass 1  IDiag  1:
 E= -279.501685263413     Delta-E=       -0.000000012828 Rises=F Damp=F
 DIIS: error= 2.04D-06 at cycle  11 NSaved=  11.
 NSaved=11 IEnMin=11 EnMin= -279.501685263413     IErMin=11 ErrMin= 2.04D-06
 ErrMax= 2.04D-06  0.00D+00 EMaxC= 1.00D-01 BMatC= 6.73D-10 BMatP= 5.65D-09
 IDIUse=1 WtCom= 1.00D+00 WtEn= 0.00D+00
 Coeff-Com: -0.214D-04 0.247D-03 0.491D-03 0.530D-03-0.429D-02-0.363D-02
 Coeff-Com:  0.216D-01 0.304D-01-0.138D+00-0.182D+00 0.127D+01
 Coeff:     -0.214D-04 0.247D-03 0.491D-03 0.530D-03-0.429D-02-0.363D-02
 Coeff:      0.216D-01 0.304D-01-0.138D+00-0.182D+00 0.127D+01
 Gap=     0.502 Goal=   None    Shift=    0.000
 RMSDP=1.81D-07 MaxDP=6.70D-06 DE=-1.28D-08 OVMax= 1.75D-05

 Cycle  12  Pass 1  IDiag  1:
 E= -279.501685265260     Delta-E=       -0.000000001847 Rises=F Damp=F
 DIIS: error= 6.03D-07 at cycle  12 NSaved=  12.
 NSaved=12 IEnMin=12 EnMin= -279.501685265260     IErMin=12 ErrMin= 6.03D-07
 ErrMax= 6.03D-07  0.00D+00 EMaxC= 1.00D-01 BMatC= 7.33D-11 BMatP= 6.73D-10
 IDIUse=1 WtCom= 1.00D+00 WtEn= 0.00D+00
 Coeff-Com:  0.126D-05-0.296D-04-0.636D-04 0.183D-03 0.109D-02-0.230D-02
 Coeff-Com: -0.417D-02 0.553D-02 0.417D-01-0.111D+00-0.289D+00 0.136D+01
 Coeff:      0.126D-05-0.296D-04-0.636D-04 0.183D-03 0.109D-02-0.230D-02
 Coeff:     -0.417D-02 0.553D-02 0.417D-01-0.111D+00-0.289D+00 0.136D+01
 Gap=     0.502 Goal=   None    Shift=    0.000
 RMSDP=7.33D-08 MaxDP=2.91D-06 DE=-1.85D-09 OVMax= 6.73D-06

 Cycle  13  Pass 1  IDiag  1:
 E= -279.501685265496     Delta-E=       -0.000000000236 Rises=F Damp=F
 DIIS: error= 1.71D-07 at cycle  13 NSaved=  13.
 NSaved=13 IEnMin=13 EnMin= -279.501685265496     IErMin=13 ErrMin= 1.71D-07
 ErrMax= 1.71D-07  0.00D+00 EMaxC= 1.00D-01 BMatC= 4.10D-12 BMatP= 7.33D-11
 IDIUse=1 WtCom= 1.00D+00 WtEn= 0.00D+00
 Coeff-Com:  0.129D-05-0.141D-04-0.226D-04-0.898D-04 0.121D-03 0.769D-03
 Coeff-Com: -0.866D-03-0.324D-02 0.502D-03 0.408D-01-0.334D-01-0.329D+00
 Coeff-Com:  0.132D+01
 Coeff:      0.129D-05-0.141D-04-0.226D-04-0.898D-04 0.121D-03 0.769D-03
 Coeff:     -0.866D-03-0.324D-02 0.502D-03 0.408D-01-0.334D-01-0.329D+00
 Coeff:      0.132D+01
 Gap=     0.502 Goal=   None    Shift=    0.000
 RMSDP=1.94D-08 MaxDP=5.64D-07 DE=-2.36D-10 OVMax= 1.57D-06

 Cycle  14  Pass 1  IDiag  1:
 E= -279.501685265509     Delta-E=       -0.000000000013 Rises=F Damp=F
 DIIS: error= 2.47D-08 at cycle  14 NSaved=  14.
 NSaved=14 IEnMin=14 EnMin= -279.501685265509     IErMin=14 ErrMin= 2.47D-08
 ErrMax= 2.47D-08  0.00D+00 EMaxC= 1.00D-01 BMatC= 1.96D-13 BMatP= 4.10D-12
 IDIUse=1 WtCom= 1.00D+00 WtEn= 0.00D+00
 Coeff-Com: -0.188D-06 0.310D-05 0.554D-05 0.447D-05-0.820D-04 0.454D-04
 Coeff-Com:  0.284D-03 0.211D-03-0.240D-02 0.134D-02 0.172D-01-0.258D-01
 Coeff-Com: -0.198D+00 0.121D+01
 Coeff:     -0.188D-06 0.310D-05 0.554D-05 0.447D-05-0.820D-04 0.454D-04
 Coeff:      0.284D-03 0.211D-03-0.240D-02 0.134D-02 0.172D-01-0.258D-01
 Coeff:     -0.198D+00 0.121D+01
 Gap=     0.502 Goal=   None    Shift=    0.000
 RMSDP=3.81D-09 MaxDP=9.31D-08 DE=-1.29D-11 OVMax= 3.41D-07

 SCF Done:  E(RHF) =  -279.501685266     A.U. after   14 cycles
            NFock= 14  Conv=0.38D-08     -V/T= 2.0024
 KE= 2.788363460882D+02 PE=-8.946317297836D+02 EE= 2.196355411362D+02
 Leave Link  502 at Mon Feb 14 22:12:18 2022, MaxMem= 16106127360 cpu:              56.5 elap:               3.7
 (Enter /sw/contrib/gaussian/g16/B01/g16/l801.exe)
 ExpMin= 2.53D-02 ExpMax= 1.53D+04 ExpMxC= 5.22D+02 IAcc=3 IRadAn=         5 AccDes= 0.00D+00
 HarFok:  IExCor=  205 AccDes= 0.00D+00 IRadAn=         5 IDoV=-2 UseB2=F ITyADJ=14
 ICtDFT= 12500011 ScaDFX=  1.000000  1.000000  1.000000  1.000000
 DSYEVD-2 returned Info=          93 IAlg= 4 N=    46 NDim=    46 NE2=   350130240 trying  DSYEV.
 Largest valence mixing into a core orbital is  2.08D-04
 Largest core mixing into a valence orbital is  3.62D-05
 Range of M.O.s used for correlation:     5   207
 NBasis=   207 NAE=    16 NBE=    16 NFC=     4 NFV=     0
 NROrb=    203 NOA=    12 NOB=    12 NVA=   191 NVB=   191

 **** Warning!!: The largest alpha MO coefficient is  0.17202207D+02

 Leave Link  801 at Mon Feb 14 22:12:18 2022, MaxMem= 16106127360 cpu:               2.8 elap:               0.3
 (Enter /sw/contrib/gaussian/g16/B01/g16/l906.exe)
 Frozen-core derivative calculation, NFC=   4 NFV=   0.
 FulOut=F Deriv=T AODrv=F NAtomX=     5
   MMem=          76  MDisk=          12 MDiskD=          12
  W3Min=      811440 MinDsk=     1524655 NBas6D=         245
 NBas2D=       30762    NTT=       30135    LW2=     3500000
    MDV= 16105579927 MDiskM=      328644 NBas2p=       30466
 Fully in-core method, ICMem=   960157634.
 IMap=   1   2   3   4   5   6   7   8   9  10  11  12  13  14  15  16
 JobTyp=1 Pass  1 fully in-core, NPsUse= 28.
 Compute canonical integrals.
 FoFCou: FMM=F IPFlag=           0 FMFlag=           0 FMFlg1=           0
         NFxFlg=           0 DoJE=F BraDBF=F KetDBF=F FulRan=T
         wScrn=  0.000000 ICntrl=       600 IOpCl=  1 I1Cent=           0 NGrid=           0
         NMat0=    1 NMatS0=  30762 NMatT0=    0 NMatD0=    1 NMtDS0=    0 NMtDT0=    0
 Symmetry not used in FoFCou.
 Spin components of T(2) and E(2):
     alpha-alpha T2 =       0.3403266968D-01 E2=     -0.1223888980D+00
     alpha-beta  T2 =       0.1868532818D+00 E2=     -0.7001590889D+00
     beta-beta   T2 =       0.3403266968D-01 E2=     -0.1223888980D+00
 The integrals were generated   1 times.
 ANorm=    0.1120231503D+01
 E2 =    -0.9449368849D+00 EUMP2 =    -0.28044662215040D+03
 Leave Link  906 at Mon Feb 14 22:12:27 2022, MaxMem= 16106127360 cpu:             244.8 elap:               8.8
 (Enter /sw/contrib/gaussian/g16/B01/g16/l1002.exe)
 Minotr:  Closed shell wavefunction.
          Computing MP2/KS-MP2 derivatives.
          Using Z-Vector for PSCF gradient.
          Skipping F1 and S1 gradient terms here.
          Frozen-core window.
          Direct CPHF calculation.
          Differentiating once with respect to electric field.
                with respect to dipole field.
          Electric field/nuclear overlap derivatives assumed to be zero.
          Using symmetry in CPHF.
          Requested convergence is 1.0D-10 RMS, and 1.0D-09 maximum.
          NewPWx=F KeepS1=T KeepF1=T KeepIn=T MapXYZ=F SortEE=F KeepMc=T.
 Keep R1 ints in memory in symmetry-blocked form, NReq=348888868.
 FoFCou: FMM=F IPFlag=           0 FMFlag=           0 FMFlg1=           0
         NFxFlg=           0 DoJE=F BraDBF=F KetDBF=F FulRan=T
         wScrn=  0.000000 ICntrl=       600 IOpCl=  0 I1Cent=           0 NGrid=           0
         NMat0=    1 NMatS0=  21528 NMatT0=    0 NMatD0=    1 NMtDS0=    0 NMtDT0=    0
 Petite list used in FoFCou.
          MDV=   16106127360 using IRadAn=       5.
          Solving linear equations separately, MaxMat=       0.
          There are     1 degrees of freedom in the 1st order CPHF.  IDoFFX=0 NUNeed=     1.
 LinEq1:  Iter=  0 NonCon=     1 RMS=5.98D-03 Max=1.33D-01 NDo=     1
 AX will form     1 AO Fock derivatives at one time.
 LinEq1:  Iter=  1 NonCon=     1 RMS=1.91D-03 Max=3.83D-02 NDo=     1
 LinEq1:  Iter=  2 NonCon=     1 RMS=8.71D-04 Max=1.35D-02 NDo=     1
 LinEq1:  Iter=  3 NonCon=     1 RMS=3.88D-04 Max=7.88D-03 NDo=     1
 LinEq1:  Iter=  4 NonCon=     1 RMS=1.21D-04 Max=1.93D-03 NDo=     1
 LinEq1:  Iter=  5 NonCon=     1 RMS=4.72D-05 Max=7.47D-04 NDo=     1
 LinEq1:  Iter=  6 NonCon=     1 RMS=2.09D-05 Max=2.52D-04 NDo=     1
 LinEq1:  Iter=  7 NonCon=     1 RMS=8.31D-06 Max=1.58D-04 NDo=     1
 LinEq1:  Iter=  8 NonCon=     1 RMS=3.52D-06 Max=3.48D-05 NDo=     1
 LinEq1:  Iter=  9 NonCon=     1 RMS=9.52D-07 Max=1.30D-05 NDo=     1
 LinEq1:  Iter= 10 NonCon=     1 RMS=1.87D-07 Max=2.00D-06 NDo=     1
 LinEq1:  Iter= 11 NonCon=     1 RMS=3.44D-08 Max=3.43D-07 NDo=     1
 LinEq1:  Iter= 12 NonCon=     1 RMS=8.26D-09 Max=1.22D-07 NDo=     1
 LinEq1:  Iter= 13 NonCon=     1 RMS=1.48D-09 Max=2.56D-08 NDo=     1
 LinEq1:  Iter= 14 NonCon=     1 RMS=2.72D-10 Max=3.64D-09 NDo=     1
 LinEq1:  Iter= 15 NonCon=     0 RMS=4.95D-11 Max=5.68D-10 NDo=     1
 Linear equations converged to 1.000D-10 1.000D-09 after    15 iterations.
 End of Minotr F.D. properties file   721 does not exist.
 End of Minotr F.D. properties file   722 does not exist.
 End of Minotr F.D. properties file   788 does not exist.
 Leave Link 1002 at Mon Feb 14 22:12:31 2022, MaxMem= 16106127360 cpu:              53.8 elap:               3.9
 (Enter /sw/contrib/gaussian/g16/B01/g16/l601.exe)
 Copying SCF densities to generalized density rwf, IOpCl= 0 IROHF=0.

 **********************************************************************

            Population analysis using the MP2 Density.

 **********************************************************************

 Orbital symmetries:
       Occupied  (A') (A') (A') (A') (A') (A') (A') (A') (A') (A')
                 (A") (A') (A") (A') (A") (A')
       Virtual   (A') (A") (A') (A') (A") (A') (A') (A') (A") (A')
                 (A") (A') (A') (A') (A") (A') (A') (A") (A') (A')
                 (A') (A') (A') (A') (A") (A') (A') (A") (A') (A')
                 (A") (A') (A") (A') (A') (A") (A') (A") (A') (A')
                 (A") (A') (A") (A') (A') (A") (A') (A') (A") (A')
                 (A") (A') (A') (A') (A") (A') (A") (A') (A") (A')
                 (A') (A') (A") (A') (A') (A") (A') (A") (A') (A')
                 (A") (A') (A') (A") (A") (A') (A') (A") (A') (A')
                 (A') (A") (A') (A") (A") (A') (A') (A") (A') (A')
                 (A") (A') (A') (A") (A') (A") (A') (A") (A') (A')
                 (A") (A') (A") (A') (A') (A") (A') (A') (A") (A')
                 (A") (A') (A') (A') (A") (A') (A') (A') (A") (A')
                 (A") (A') (A") (A') (A') (A") (A") (A') (A") (A')
                 (A') (A') (A') (A") (A") (A") (A') (A') (A') (A')
                 (A") (A') (A") (A') (A') (A") (A') (A') (A') (A')
                 (A") (A') (A') (A") (A') (A") (A') (A") (A') (A")
                 (A') (A") (A') (A") (A') (A") (A") (A') (A") (A')
                 (A") (A') (A") (A') (A") (A') (A") (A") (A') (A')
                 (A') (A') (A') (A') (A') (A') (A') (A') (A') (A')
                 (A')
 The electronic state is 1-A'.
 Alpha  occ. eigenvalues --  -20.69039 -20.68467 -20.66053 -15.81334  -1.62398
 Alpha  occ. eigenvalues --   -1.49528  -1.25517  -0.94777  -0.77156  -0.75983
 Alpha  occ. eigenvalues --   -0.71155  -0.68177  -0.62088  -0.58820  -0.48508
 Alpha  occ. eigenvalues --   -0.47217
 Alpha virt. eigenvalues --    0.02963   0.07148   0.08597   0.10215   0.13376
 Alpha virt. eigenvalues --    0.13378   0.14387   0.15397   0.17832   0.19433
 Alpha virt. eigenvalues --    0.19998   0.20609   0.22065   0.23520   0.23725
 Alpha virt. eigenvalues --    0.26726   0.29366   0.30301   0.31090   0.34385
 Alpha virt. eigenvalues --    0.34920   0.38650   0.42246   0.43290   0.52757
 Alpha virt. eigenvalues --    0.52783   0.55663   0.57918   0.62553   0.63955
 Alpha virt. eigenvalues --    0.67483   0.68458   0.70732   0.71010   0.72463
 Alpha virt. eigenvalues --    0.72852   0.74463   0.79214   0.79332   0.81126
 Alpha virt. eigenvalues --    0.81261   0.82902   0.86821   0.90855   0.92168
 Alpha virt. eigenvalues --    0.92678   0.95397   0.97196   0.98325   1.01637
 Alpha virt. eigenvalues --    1.05071   1.05603   1.07790   1.11371   1.13853
 Alpha virt. eigenvalues --    1.19150   1.21922   1.23479   1.34029   1.35160
 Alpha virt. eigenvalues --    1.38421   1.45488   1.48821   1.50873   1.53613
 Alpha virt. eigenvalues --    1.56533   1.57857   1.61113   1.66011   1.67278
 Alpha virt. eigenvalues --    1.70329   1.79164   1.83593   1.83692   1.87702
 Alpha virt. eigenvalues --    1.90726   1.95348   1.99091   2.00592   2.07863
 Alpha virt. eigenvalues --    2.12480   2.13309   2.14949   2.22310   2.26399
 Alpha virt. eigenvalues --    2.26541   2.29109   2.31198   2.33520   2.38417
 Alpha virt. eigenvalues --    2.42147   2.42952   2.45530   2.46095   2.47658
 Alpha virt. eigenvalues --    2.49664   2.58771   2.59800   2.61905   2.62784
 Alpha virt. eigenvalues --    2.63863   2.66471   2.75356   2.81781   2.83910
 Alpha virt. eigenvalues --    2.87451   2.89519   2.92721   2.96228   3.01496
 Alpha virt. eigenvalues --    3.06409   3.11768   3.20274   3.22292   3.31844
 Alpha virt. eigenvalues --    3.34971   3.52861   3.63398   3.83661   3.84344
 Alpha virt. eigenvalues --    4.14674   4.16378   4.18204   4.25439   4.35611
 Alpha virt. eigenvalues --    4.38981   4.46292   4.52079   4.65215   4.70939
 Alpha virt. eigenvalues --    4.79936   4.82383   4.83147   4.89447   5.02505
 Alpha virt. eigenvalues --    5.07775   5.10392   5.15165   5.17299   5.23857
 Alpha virt. eigenvalues --    5.27340   5.30797   5.32531   5.34748   5.59246
 Alpha virt. eigenvalues --    5.67335   5.76434   5.83155   5.95753   6.16320
 Alpha virt. eigenvalues --    6.30896   6.33997   6.39615   6.49430   6.50684
 Alpha virt. eigenvalues --    6.61061   6.67094   6.70125   6.75226   6.76313
 Alpha virt. eigenvalues --    6.83141   6.90062   7.01754   7.05581   7.06127
 Alpha virt. eigenvalues --    7.08976   7.12278   7.14655   7.18063   7.22691
 Alpha virt. eigenvalues --    7.23963   7.30605   7.32571   7.33741   7.39543
 Alpha virt. eigenvalues --    7.43411   7.48171   7.61329   7.61576   7.62004
 Alpha virt. eigenvalues --    7.66113   7.78632   7.87911   8.09589   8.31385
 Alpha virt. eigenvalues --    8.40949   8.54577  13.37639  14.42508  15.14450
 Alpha virt. eigenvalues --   16.14999
          Condensed to atoms (all electrons):
               1          2          3          4          5
     1  H    0.586566   0.128661   0.021475   0.011388  -0.000524
     2  O    0.128661   8.322683  -0.176688  -0.084778   0.014995
     3  O    0.021475  -0.176688   8.469455  -0.132456  -0.036990
     4  N    0.011388  -0.084778  -0.132456   6.972540  -0.055612
     5  O   -0.000524   0.014995  -0.036990  -0.055612   8.269814
 Mulliken charges:
               1
     1  H    0.252433
     2  O   -0.204873
     3  O   -0.144795
     4  N    0.288918
     5  O   -0.191683
 Sum of Mulliken charges =  -0.00000
 Mulliken charges with hydrogens summed into heavy atoms:
               1
     2  O    0.047560
     3  O   -0.144795
     4  N    0.288918
     5  O   -0.191683
 Electronic spatial extent (au):  <R**2>=            254.6822
 Charge=             -0.0000 electrons
 Dipole moment (field-independent basis, Debye):
    X=              0.4667    Y=              1.3726    Z=              0.0000  Tot=              1.4498
 Quadrupole moment (field-independent basis, Debye-Ang):
   XX=            -22.6403   YY=            -18.4510   ZZ=            -22.0135
   XY=              3.1958   XZ=             -0.0000   YZ=             -0.0000
 Traceless Quadrupole moment (field-independent basis, Debye-Ang):
   XX=             -1.6054   YY=              2.5839   ZZ=             -0.9786
   XY=              3.1958   XZ=             -0.0000   YZ=             -0.0000
 Octapole moment (field-independent basis, Debye-Ang**2):
  XXX=              2.3954  YYY=             11.9058  ZZZ=             -0.0000  XYY=              7.9628
  XXY=              6.3005  XXZ=              0.0000  XZZ=             -1.5743  YZZ=             -0.8715
  YYZ=              0.0000  XYZ=              0.0000
 Hexadecapole moment (field-independent basis, Debye-Ang**3):
 XXXX=           -158.5608 YYYY=            -91.2410 ZZZZ=            -18.2475 XXXY=            -38.3067
 XXXZ=             -0.0000 YYYX=            -31.2405 YYYZ=             -0.0000 ZZZX=             -0.0000
 ZZZY=             -0.0000 XXYY=            -34.4488 XXZZ=            -30.7314 YYZZ=            -21.1622
 XXYZ=             -0.0000 YYXZ=             -0.0000 ZZXY=            -15.4335
 N-N= 1.166581572937D+02 E-N=-8.954137332129D+02  KE= 2.801885604365D+02
 Symmetry A'   KE= 2.662183950782D+02
 Symmetry A"   KE= 1.397016535821D+01
 No NMR shielding tensors so no spin-rotation constants.
 Leave Link  601 at Mon Feb 14 22:12:31 2022, MaxMem= 16106127360 cpu:               5.0 elap:               0.2
 (Enter /sw/contrib/gaussian/g16/B01/g16/l9999.exe)
 1\1\GINC-N2126\SP\RMP2-FC\Aug-CC-pVTZ\H1N1O3\CGAVINH\14-Feb-2022\0\\#p
  SP mp2/aug-cc-pvtz density=current\\title\\0,1\H\O,1,0.96897556\O,2,1
 .45491931,1,97.59494903\N,3,1.45878406,2,103.92392965,1,180.,0\O,4,1.1
 7072885,3,109.06955123,2,180.,0\\Version=ES64L-G16RevB.01\State=1-A'\H
 F=-279.5016853\MP2=-280.4466222\RMSD=3.807e-09\Dipole=-0.1466681,0.,-0
 .5512112\Quadrupole=-1.5000931,-0.7275492,2.2276423,0.,2.1439735,0.\PG
 =CS [SG(H1N1O3)]\\@


 BLACK HOLES SUCK.
 Job cpu time:       0 days  0 hours  6 minutes 23.7 seconds.
 Elapsed time:       0 days  0 hours  0 minutes 17.9 seconds.
 File lengths (MBytes):  RWF=     22 Int=      0 D2E=      0 Chk=      8 Scr=      1
 Normal termination of Gaussian 16 at Mon Feb 14 22:12:31 2022.
