 Entering Gaussian System, Link 0=g16
 Input=hoono_a3_107p8247.gjf
 Output=hoono_a3_107p8247.log
 Initial command:
 /sw/contrib/gaussian/g16/B01/g16/l1.exe "/scr/Gau-19583.inp" -scrdir="/scr/"
 Entering Link 1 = /sw/contrib/gaussian/g16/B01/g16/l1.exe PID=     19584.
  
 Copyright (c) 1988-2017, Gaussian, Inc.  All Rights Reserved.
  
 This is part of the Gaussian(R) 16 program.  It is based on
 the Gaussian(R) 09 system (copyright 2009, Gaussian, Inc.),
 the Gaussian(R) 03 system (copyright 2003, Gaussian, Inc.),
 the Gaussian(R) 98 system (copyright 1998, Gaussian, Inc.),
 the Gaussian(R) 94 system (copyright 1995, Gaussian, Inc.),
 the Gaussian 92(TM) system (copyright 1992, Gaussian, Inc.),
 the Gaussian 90(TM) system (copyright 1990, Gaussian, Inc.),
 the Gaussian 88(TM) system (copyright 1988, Gaussian, Inc.),
 the Gaussian 86(TM) system (copyright 1986, Carnegie Mellon
 University), and the Gaussian 82(TM) system (copyright 1983,
 Carnegie Mellon University). Gaussian is a federally registered
 trademark of Gaussian, Inc.
  
 This software contains proprietary and confidential information,
 including trade secrets, belonging to Gaussian, Inc.
  
 This software is provided under written license and may be
 used, copied, transmitted, or stored only in accord with that
 written license.
  
 The following legend is applicable only to US Government
 contracts under FAR:
  
                    RESTRICTED RIGHTS LEGEND
  
 Use, reproduction and disclosure by the US Government is
 subject to restrictions as set forth in subparagraphs (a)
 and (c) of the Commercial Computer Software - Restricted
 Rights clause in FAR 52.227-19.
  
 Gaussian, Inc.
 340 Quinnipiac St., Bldg. 40, Wallingford CT 06492
  
  
 ---------------------------------------------------------------
 Warning -- This program may not be used in any manner that
 competes with the business of Gaussian, Inc. or will provide
 assistance to any competitor of Gaussian, Inc.  The licensee
 of this program is prohibited from giving any competitor of
 Gaussian, Inc. access to this program.  By using this program,
 the user acknowledges that Gaussian, Inc. is engaged in the
 business of creating and licensing software in the field of
 computational chemistry and represents and warrants to the
 licensee that it is not a competitor of Gaussian, Inc. and that
 it will not use this program in any manner prohibited above.
 ---------------------------------------------------------------
  

 Cite this work as:
 Gaussian 16, Revision B.01,
 M. J. Frisch, G. W. Trucks, H. B. Schlegel, G. E. Scuseria, 
 M. A. Robb, J. R. Cheeseman, G. Scalmani, V. Barone, 
 G. A. Petersson, H. Nakatsuji, X. Li, M. Caricato, A. V. Marenich, 
 J. Bloino, B. G. Janesko, R. Gomperts, B. Mennucci, H. P. Hratchian, 
 J. V. Ortiz, A. F. Izmaylov, J. L. Sonnenberg, D. Williams-Young, 
 F. Ding, F. Lipparini, F. Egidi, J. Goings, B. Peng, A. Petrone, 
 T. Henderson, D. Ranasinghe, V. G. Zakrzewski, J. Gao, N. Rega, 
 G. Zheng, W. Liang, M. Hada, M. Ehara, K. Toyota, R. Fukuda, 
 J. Hasegawa, M. Ishida, T. Nakajima, Y. Honda, O. Kitao, H. Nakai, 
 T. Vreven, K. Throssell, J. A. Montgomery, Jr., J. E. Peralta, 
 F. Ogliaro, M. J. Bearpark, J. J. Heyd, E. N. Brothers, K. N. Kudin, 
 V. N. Staroverov, T. A. Keith, R. Kobayashi, J. Normand, 
 K. Raghavachari, A. P. Rendell, J. C. Burant, S. S. Iyengar, 
 J. Tomasi, M. Cossi, J. M. Millam, M. Klene, C. Adamo, R. Cammi, 
 J. W. Ochterski, R. L. Martin, K. Morokuma, O. Farkas, 
 J. B. Foresman, and D. J. Fox, Gaussian, Inc., Wallingford CT, 2016.
 
 ******************************************
 Gaussian 16:  ES64L-G16RevB.01 20-Dec-2017
                14-Feb-2022 
 ******************************************
 %nproc=28
 Will use up to   28 processors via shared memory.
 %mem=120GB
 %chk=hoono_a3_107p8247.chk
 -------------------------------------
 #p SP mp2/aug-cc-pvtz density=current
 -------------------------------------
 1/30=1,38=1,172=1/1;
 2/12=2,17=6,18=5,40=1/2;
 3/5=16,6=1,7=10,11=9,25=1,30=1,71=1/1,2,3;
 4//1;
 5/5=2,38=5/2;
 8/6=4,10=1/1;
 9/15=1,16=-3/6;
 10/5=1,13=10/2;
 6/7=2,8=2,9=2,10=2,22=-1/1;
 99/5=1,9=1/99;
 Leave Link    1 at Mon Feb 14 22:13:08 2022, MaxMem= 16106127360 cpu:               5.0 elap:               0.2
 (Enter /sw/contrib/gaussian/g16/B01/g16/l101.exe)
 -----
 title
 -----
 Symbolic Z-matrix:
 Charge =  0 Multiplicity = 1
 H
 O                    1    r1
 O                    2    r2       1    a1
 N                    3    r3       2    a2       1    d1       0
 O                    4    r4       3    a3       2    d2       0
       Variables:
  r1                    0.96898                  
  r2                    1.45492                  
  r3                    1.45878                  
  r4                    1.17073                  
  a1                   97.59495                  
  a2                  102.29752                  
  a3                  107.82479                  
  d1                  180.                       
  d2                  180.                       
 
 ITRead=  0  0  0  0  0
 MicOpt= -1 -1 -1 -1 -1
 NAtoms=      5 NQM=        5 NQMF=       0 NMMI=      0 NMMIF=      0
                NMic=       0 NMicF=      0.
                    Isotopes and Nuclear Properties:
 (Nuclear quadrupole moments (NQMom) in fm**2, nuclear magnetic moments (NMagM)
  in nuclear magnetons)

  Atom         1           2           3           4           5
 IAtWgt=           1          16          16          14          16
 AtmWgt=   1.0078250  15.9949146  15.9949146  14.0030740  15.9949146
 NucSpn=           1           0           0           2           0
 AtZEff=  -0.0000000  -0.0000000  -0.0000000  -0.0000000  -0.0000000
 NQMom=    0.0000000   0.0000000   0.0000000   2.0440000   0.0000000
 NMagM=    2.7928460   0.0000000   0.0000000   0.4037610   0.0000000
 AtZNuc=   1.0000000   8.0000000   8.0000000   7.0000000   8.0000000
 Leave Link  101 at Mon Feb 14 22:13:08 2022, MaxMem= 16106127360 cpu:               2.3 elap:               0.1
 (Enter /sw/contrib/gaussian/g16/B01/g16/l202.exe)
                          Input orientation:                          
 ---------------------------------------------------------------------
 Center     Atomic      Atomic             Coordinates (Angstroms)
 Number     Number       Type             X           Y           Z
 ---------------------------------------------------------------------
      1          1           0        0.000000    0.000000    0.000000
      2          8           0        0.000000    0.000000    0.968976
      3          8           0        1.442156    0.000000    1.161271
      4          7           0        1.561752    0.000000    2.615144
      5          8           0        2.701910    0.000000    2.880933
 ---------------------------------------------------------------------
                    Distance matrix (angstroms):
                    1          2          3          4          5
     1  H    0.000000
     2  O    0.968976   0.000000
     3  O    1.851584   1.454919   0.000000
     4  N    3.045989   2.269127   1.458784   0.000000
     5  O    3.949696   3.309970   2.131718   1.170729   0.000000
 Stoichiometry    HNO3
 Framework group  CS[SG(HNO3)]
 Deg. of freedom     7
 Full point group                 CS      NOp   2
 Largest Abelian subgroup         CS      NOp   2
 Largest concise Abelian subgroup C1      NOp   1
                         Standard orientation:                         
 ---------------------------------------------------------------------
 Center     Atomic      Atomic             Coordinates (Angstroms)
 Number     Number       Type             X           Y           Z
 ---------------------------------------------------------------------
      1          1           0        1.547745    1.683006    0.000000
      2          8           0        1.453995    0.718577    0.000000
      3          8           0       -0.000000    0.666715    0.000000
      4          7           0       -0.259700   -0.768767   -0.000000
      5          8           0       -1.420225   -0.922996   -0.000000
 ---------------------------------------------------------------------
 Rotational constants (GHZ):          54.6100378           5.0424226           4.6161866
 Leave Link  202 at Mon Feb 14 22:13:08 2022, MaxMem= 16106127360 cpu:               0.5 elap:               0.0
 (Enter /sw/contrib/gaussian/g16/B01/g16/l301.exe)
 Standard basis: Aug-CC-pVTZ (5D, 7F)
 Ernie: Thresh=  0.10000D-02 Tol=  0.10000D-05 Strict=F.
 Ernie:  12 primitive shells out of 131 were deleted.
 There are   166 symmetry adapted cartesian basis functions of A'  symmetry.
 There are    79 symmetry adapted cartesian basis functions of A"  symmetry.
 There are   136 symmetry adapted basis functions of A'  symmetry.
 There are    71 symmetry adapted basis functions of A"  symmetry.
   207 basis functions,   315 primitive gaussians,   245 cartesian basis functions
    16 alpha electrons       16 beta electrons
       nuclear repulsion energy       117.0264658465 Hartrees.
 IExCor=    0 DFT=F Ex=HF Corr=None ExCW=0 ScaHFX=  1.000000
 ScaDFX=  1.000000  1.000000  1.000000  1.000000 ScalE2=  1.000000  1.000000
 IRadAn=      5 IRanWt=     -1 IRanGd=            0 ICorTp=0 IEmpDi=  4
 NAtoms=    5 NActive=    5 NUniq=    5 SFac= 1.00D+00 NAtFMM=   60 NAOKFM=F Big=F
 Integral buffers will be    131072 words long.
 Raffenetti 1 integral format.
 Two-electron integral symmetry is turned on.
 Leave Link  301 at Mon Feb 14 22:13:08 2022, MaxMem= 16106127360 cpu:               2.3 elap:               0.1
 (Enter /sw/contrib/gaussian/g16/B01/g16/l302.exe)
 NPDir=0 NMtPBC=     1 NCelOv=     1 NCel=       1 NClECP=     1 NCelD=      1
         NCelK=      1 NCelE2=     1 NClLst=     1 CellRange=     0.0.
 One-electron integrals computed using PRISM.
 One-electron integral symmetry used in STVInt
 NBasis=   207 RedAO= T EigKep=  1.81D-04  NBF=   136    71
 NBsUse=   207 1.00D-06 EigRej= -1.00D+00 NBFU=   136    71
 Leave Link  302 at Mon Feb 14 22:13:08 2022, MaxMem= 16106127360 cpu:               4.4 elap:               0.2
 (Enter /sw/contrib/gaussian/g16/B01/g16/l303.exe)
 DipDrv:  MaxL=1.
 Leave Link  303 at Mon Feb 14 22:13:08 2022, MaxMem= 16106127360 cpu:               0.9 elap:               0.1
 (Enter /sw/contrib/gaussian/g16/B01/g16/l401.exe)
 ExpMin= 2.53D-02 ExpMax= 1.53D+04 ExpMxC= 5.22D+02 IAcc=3 IRadAn=         5 AccDes= 0.00D+00
 Harris functional with IExCor=  205 and IRadAn=       5 diagonalized for initial guess.
 HarFok:  IExCor=  205 AccDes= 0.00D+00 IRadAn=         5 IDoV= 1 UseB2=F ITyADJ=14
 ICtDFT=  3500011 ScaDFX=  1.000000  1.000000  1.000000  1.000000
 FoFCou: FMM=F IPFlag=           0 FMFlag=      100000 FMFlg1=           0
         NFxFlg=           0 DoJE=T BraDBF=F KetDBF=T FulRan=T
         wScrn=  0.000000 ICntrl=       500 IOpCl=  0 I1Cent=   200000004 NGrid=           0
         NMat0=    1 NMatS0=      1 NMatT0=    0 NMatD0=    1 NMtDS0=    0 NMtDT0=    0
 Petite list used in FoFCou.
 Harris En= -279.628624457489    
 JPrj=0 DoOrth=F DoCkMO=F.
 Initial guess orbital symmetries:
       Occupied  (A') (A') (A') (A') (A') (A') (A') (A') (A') (A')
                 (A") (A') (A') (A") (A") (A')
       Virtual   (A") (A') (A') (A') (A') (A') (A") (A') (A') (A')
                 (A") (A') (A") (A') (A') (A") (A') (A") (A') (A')
                 (A') (A') (A') (A') (A') (A") (A') (A") (A') (A')
                 (A") (A') (A") (A') (A') (A") (A') (A") (A') (A')
                 (A") (A') (A") (A') (A") (A') (A') (A') (A") (A")
                 (A') (A') (A') (A') (A") (A') (A") (A') (A") (A')
                 (A') (A') (A") (A') (A') (A") (A') (A") (A') (A')
                 (A") (A') (A') (A") (A") (A') (A') (A") (A') (A')
                 (A') (A") (A') (A") (A") (A') (A') (A") (A') (A')
                 (A') (A") (A') (A") (A') (A") (A") (A') (A') (A')
                 (A") (A') (A") (A') (A') (A') (A") (A') (A") (A')
                 (A") (A') (A') (A') (A") (A') (A') (A') (A") (A')
                 (A") (A') (A') (A") (A") (A') (A') (A") (A") (A')
                 (A') (A') (A') (A") (A") (A') (A") (A') (A') (A')
                 (A') (A") (A") (A') (A') (A") (A') (A') (A') (A')
                 (A") (A') (A') (A") (A') (A") (A') (A") (A') (A")
                 (A') (A") (A') (A") (A') (A") (A") (A") (A') (A')
                 (A") (A') (A") (A') (A") (A') (A") (A") (A') (A')
                 (A') (A') (A') (A') (A') (A') (A') (A') (A') (A')
                 (A')
 The electronic state of the initial guess is 1-A'.
 Leave Link  401 at Mon Feb 14 22:13:09 2022, MaxMem= 16106127360 cpu:               7.9 elap:               0.3
 (Enter /sw/contrib/gaussian/g16/B01/g16/l502.exe)
 Keep R1 ints in memory in symmetry-blocked form, NReq=348887737.
 FoFCou: FMM=F IPFlag=           0 FMFlag=           0 FMFlg1=           0
         NFxFlg=           0 DoJE=F BraDBF=F KetDBF=F FulRan=T
         wScrn=  0.000000 ICntrl=       600 IOpCl=  0 I1Cent=           0 NGrid=           0
         NMat0=    1 NMatS0=  21528 NMatT0=    0 NMatD0=    1 NMtDS0=    0 NMtDT0=    0
 Petite list used in FoFCou.
 Closed shell SCF:
 Using DIIS extrapolation, IDIIS=  1040.
 NGot= 16106127360 LenX= 15988850015 LenY= 15988789549
 Requested convergence on RMS density matrix=1.00D-08 within 128 cycles.
 Requested convergence on MAX density matrix=1.00D-06.
 Requested convergence on             energy=1.00D-06.
 No special actions if energy rises.

 Cycle   1  Pass 1  IDiag  1:
 E= -279.369984082986    
 DIIS: error= 2.52D-02 at cycle   1 NSaved=   1.
 NSaved= 1 IEnMin= 1 EnMin= -279.369984082986     IErMin= 1 ErrMin= 2.52D-02
 ErrMax= 2.52D-02  0.00D+00 EMaxC= 1.00D-01 BMatC= 4.39D-01 BMatP= 4.39D-01
 IDIUse=3 WtCom= 7.48D-01 WtEn= 2.52D-01
 Coeff-Com:  0.100D+01
 Coeff-En:   0.100D+01
 Coeff:      0.100D+01
 Gap=     0.511 Goal=   None    Shift=    0.000
 GapD=    0.511 DampG=2.000 DampE=0.500 DampFc=1.0000 IDamp=-1.
 RMSDP=1.63D-03 MaxDP=1.01D-01              OVMax= 1.14D-01

 Cycle   2  Pass 1  IDiag  1:
 E= -279.452234526288     Delta-E=       -0.082250443303 Rises=F Damp=F
 DIIS: error= 1.81D-02 at cycle   2 NSaved=   2.
 NSaved= 2 IEnMin= 2 EnMin= -279.452234526288     IErMin= 2 ErrMin= 1.81D-02
 ErrMax= 1.81D-02  0.00D+00 EMaxC= 1.00D-01 BMatC= 7.21D-02 BMatP= 4.39D-01
 IDIUse=3 WtCom= 8.19D-01 WtEn= 1.81D-01
 Coeff-Com:  0.196D+00 0.804D+00
 Coeff-En:   0.000D+00 0.100D+01
 Coeff:      0.160D+00 0.840D+00
 Gap=     0.532 Goal=   None    Shift=    0.000
 RMSDP=9.01D-04 MaxDP=3.76D-02 DE=-8.23D-02 OVMax= 6.96D-02

 Cycle   3  Pass 1  IDiag  1:
 E= -279.481618452534     Delta-E=       -0.029383926246 Rises=F Damp=F
 DIIS: error= 1.05D-02 at cycle   3 NSaved=   3.
 NSaved= 3 IEnMin= 3 EnMin= -279.481618452534     IErMin= 3 ErrMin= 1.05D-02
 ErrMax= 1.05D-02  0.00D+00 EMaxC= 1.00D-01 BMatC= 2.86D-02 BMatP= 7.21D-02
 IDIUse=3 WtCom= 8.95D-01 WtEn= 1.05D-01
 Coeff-Com: -0.330D-01 0.377D+00 0.656D+00
 Coeff-En:   0.000D+00 0.238D+00 0.762D+00
 Coeff:     -0.295D-01 0.362D+00 0.667D+00
 Gap=     0.512 Goal=   None    Shift=    0.000
 RMSDP=3.76D-04 MaxDP=1.56D-02 DE=-2.94D-02 OVMax= 3.81D-02

 Cycle   4  Pass 1  IDiag  1:
 E= -279.500567549575     Delta-E=       -0.018949097041 Rises=F Damp=F
 DIIS: error= 1.28D-03 at cycle   4 NSaved=   4.
 NSaved= 4 IEnMin= 4 EnMin= -279.500567549575     IErMin= 4 ErrMin= 1.28D-03
 ErrMax= 1.28D-03  0.00D+00 EMaxC= 1.00D-01 BMatC= 4.97D-04 BMatP= 2.86D-02
 IDIUse=3 WtCom= 9.87D-01 WtEn= 1.28D-02
 Coeff-Com: -0.117D-01 0.572D-01 0.160D+00 0.795D+00
 Coeff-En:   0.000D+00 0.000D+00 0.000D+00 0.100D+01
 Coeff:     -0.115D-01 0.565D-01 0.158D+00 0.797D+00
 Gap=     0.504 Goal=   None    Shift=    0.000
 RMSDP=9.00D-05 MaxDP=2.75D-03 DE=-1.89D-02 OVMax= 1.12D-02

 Cycle   5  Pass 1  IDiag  1:
 E= -279.501245823348     Delta-E=       -0.000678273773 Rises=F Damp=F
 DIIS: error= 7.32D-04 at cycle   5 NSaved=   5.
 NSaved= 5 IEnMin= 5 EnMin= -279.501245823348     IErMin= 5 ErrMin= 7.32D-04
 ErrMax= 7.32D-04  0.00D+00 EMaxC= 1.00D-01 BMatC= 8.70D-05 BMatP= 4.97D-04
 IDIUse=3 WtCom= 9.93D-01 WtEn= 7.32D-03
 Coeff-Com:  0.617D-02-0.726D-01-0.119D+00 0.170D-01 0.117D+01
 Coeff-En:   0.000D+00 0.000D+00 0.000D+00 0.000D+00 0.100D+01
 Coeff:      0.613D-02-0.721D-01-0.118D+00 0.169D-01 0.117D+01
 Gap=     0.504 Goal=   None    Shift=    0.000
 RMSDP=7.66D-05 MaxDP=2.12D-03 DE=-6.78D-04 OVMax= 1.12D-02

 Cycle   6  Pass 1  IDiag  1:
 E= -279.501562006001     Delta-E=       -0.000316182653 Rises=F Damp=F
 DIIS: error= 2.77D-04 at cycle   6 NSaved=   6.
 NSaved= 6 IEnMin= 6 EnMin= -279.501562006001     IErMin= 6 ErrMin= 2.77D-04
 ErrMax= 2.77D-04  0.00D+00 EMaxC= 1.00D-01 BMatC= 1.66D-05 BMatP= 8.70D-05
 IDIUse=3 WtCom= 9.97D-01 WtEn= 2.77D-03
 Coeff-Com:  0.556D-03 0.205D-02 0.531D-02-0.129D+00-0.236D+00 0.136D+01
 Coeff-En:   0.000D+00 0.000D+00 0.000D+00 0.000D+00 0.000D+00 0.100D+01
 Coeff:      0.554D-03 0.205D-02 0.530D-02-0.129D+00-0.235D+00 0.136D+01
 Gap=     0.504 Goal=   None    Shift=    0.000
 RMSDP=4.52D-05 MaxDP=1.24D-03 DE=-3.16D-04 OVMax= 5.56D-03

 Cycle   7  Pass 1  IDiag  1:
 E= -279.501634372866     Delta-E=       -0.000072366865 Rises=F Damp=F
 DIIS: error= 1.22D-04 at cycle   7 NSaved=   7.
 NSaved= 7 IEnMin= 7 EnMin= -279.501634372866     IErMin= 7 ErrMin= 1.22D-04
 ErrMax= 1.22D-04  0.00D+00 EMaxC= 1.00D-01 BMatC= 4.41D-06 BMatP= 1.66D-05
 IDIUse=3 WtCom= 9.99D-01 WtEn= 1.22D-03
 Coeff-Com: -0.940D-03 0.135D-01 0.265D-01-0.232D-01-0.284D+00 0.382D+00
 Coeff-Com:  0.886D+00
 Coeff-En:   0.000D+00 0.000D+00 0.000D+00 0.000D+00 0.000D+00 0.000D+00
 Coeff-En:   0.100D+01
 Coeff:     -0.939D-03 0.134D-01 0.264D-01-0.231D-01-0.284D+00 0.382D+00
 Coeff:      0.886D+00
 Gap=     0.504 Goal=   None    Shift=    0.000
 RMSDP=1.32D-05 MaxDP=3.72D-04 DE=-7.24D-05 OVMax= 1.54D-03

 Cycle   8  Pass 1  IDiag  1:
 E= -279.501643091847     Delta-E=       -0.000008718982 Rises=F Damp=F
 DIIS: error= 5.61D-05 at cycle   8 NSaved=   8.
 NSaved= 8 IEnMin= 8 EnMin= -279.501643091847     IErMin= 8 ErrMin= 5.61D-05
 ErrMax= 5.61D-05  0.00D+00 EMaxC= 1.00D-01 BMatC= 6.07D-07 BMatP= 4.41D-06
 IDIUse=1 WtCom= 1.00D+00 WtEn= 0.00D+00
 Coeff-Com: -0.447D-03 0.341D-02 0.760D-02 0.272D-01-0.403D-01-0.199D+00
 Coeff-Com:  0.181D+00 0.102D+01
 Coeff:     -0.447D-03 0.341D-02 0.760D-02 0.272D-01-0.403D-01-0.199D+00
 Coeff:      0.181D+00 0.102D+01
 Gap=     0.504 Goal=   None    Shift=    0.000
 RMSDP=6.81D-06 MaxDP=2.02D-04 DE=-8.72D-06 OVMax= 7.31D-04

 Cycle   9  Pass 1  IDiag  1:
 E= -279.501644839776     Delta-E=       -0.000001747929 Rises=F Damp=F
 DIIS: error= 1.62D-05 at cycle   9 NSaved=   9.
 NSaved= 9 IEnMin= 9 EnMin= -279.501644839776     IErMin= 9 ErrMin= 1.62D-05
 ErrMax= 1.62D-05  0.00D+00 EMaxC= 1.00D-01 BMatC= 6.98D-08 BMatP= 6.07D-07
 IDIUse=1 WtCom= 1.00D+00 WtEn= 0.00D+00
 Coeff-Com:  0.125D-03-0.173D-02-0.311D-02-0.213D-02 0.344D-01 0.182D-03
 Coeff-Com: -0.171D+00-0.993D-01 0.124D+01
 Coeff:      0.125D-03-0.173D-02-0.311D-02-0.213D-02 0.344D-01 0.182D-03
 Coeff:     -0.171D+00-0.993D-01 0.124D+01
 Gap=     0.504 Goal=   None    Shift=    0.000
 RMSDP=1.93D-06 MaxDP=6.67D-05 DE=-1.75D-06 OVMax= 1.75D-04

 Cycle  10  Pass 1  IDiag  1:
 E= -279.501644999755     Delta-E=       -0.000000159979 Rises=F Damp=F
 DIIS: error= 4.17D-06 at cycle  10 NSaved=  10.
 NSaved=10 IEnMin=10 EnMin= -279.501644999755     IErMin=10 ErrMin= 4.17D-06
 ErrMax= 4.17D-06  0.00D+00 EMaxC= 1.00D-01 BMatC= 5.48D-09 BMatP= 6.98D-08
 IDIUse=1 WtCom= 1.00D+00 WtEn= 0.00D+00
 Coeff-Com:  0.304D-04-0.236D-03-0.315D-03-0.267D-02 0.154D-02 0.196D-01
 Coeff-Com: -0.133D-01-0.730D-01-0.810D-01 0.115D+01
 Coeff:      0.304D-04-0.236D-03-0.315D-03-0.267D-02 0.154D-02 0.196D-01
 Coeff:     -0.133D-01-0.730D-01-0.810D-01 0.115D+01
 Gap=     0.504 Goal=   None    Shift=    0.000
 RMSDP=4.96D-07 MaxDP=2.10D-05 DE=-1.60D-07 OVMax= 4.11D-05

 Cycle  11  Pass 1  IDiag  1:
 E= -279.501645012080     Delta-E=       -0.000000012325 Rises=F Damp=F
 DIIS: error= 2.01D-06 at cycle  11 NSaved=  11.
 NSaved=11 IEnMin=11 EnMin= -279.501645012080     IErMin=11 ErrMin= 2.01D-06
 ErrMax= 2.01D-06  0.00D+00 EMaxC= 1.00D-01 BMatC= 6.52D-10 BMatP= 5.48D-09
 IDIUse=1 WtCom= 1.00D+00 WtEn= 0.00D+00
 Coeff-Com: -0.212D-04 0.243D-03 0.488D-03 0.524D-03-0.427D-02-0.353D-02
 Coeff-Com:  0.216D-01 0.300D-01-0.138D+00-0.175D+00 0.127D+01
 Coeff:     -0.212D-04 0.243D-03 0.488D-03 0.524D-03-0.427D-02-0.353D-02
 Coeff:      0.216D-01 0.300D-01-0.138D+00-0.175D+00 0.127D+01
 Gap=     0.504 Goal=   None    Shift=    0.000
 RMSDP=1.75D-07 MaxDP=6.30D-06 DE=-1.23D-08 OVMax= 1.74D-05

 Cycle  12  Pass 1  IDiag  1:
 E= -279.501645013860     Delta-E=       -0.000000001780 Rises=F Damp=F
 DIIS: error= 5.76D-07 at cycle  12 NSaved=  12.
 NSaved=12 IEnMin=12 EnMin= -279.501645013860     IErMin=12 ErrMin= 5.76D-07
 ErrMax= 5.76D-07  0.00D+00 EMaxC= 1.00D-01 BMatC= 7.13D-11 BMatP= 6.52D-10
 IDIUse=1 WtCom= 1.00D+00 WtEn= 0.00D+00
 Coeff-Com:  0.125D-05-0.291D-04-0.633D-04 0.181D-03 0.108D-02-0.233D-02
 Coeff-Com: -0.408D-02 0.559D-02 0.414D-01-0.116D+00-0.276D+00 0.135D+01
 Coeff:      0.125D-05-0.291D-04-0.633D-04 0.181D-03 0.108D-02-0.233D-02
 Coeff:     -0.408D-02 0.559D-02 0.414D-01-0.116D+00-0.276D+00 0.135D+01
 Gap=     0.504 Goal=   None    Shift=    0.000
 RMSDP=7.12D-08 MaxDP=2.73D-06 DE=-1.78D-09 OVMax= 6.75D-06

 Cycle  13  Pass 1  IDiag  1:
 E= -279.501645014089     Delta-E=       -0.000000000229 Rises=F Damp=F
 DIIS: error= 1.65D-07 at cycle  13 NSaved=  13.
 NSaved=13 IEnMin=13 EnMin= -279.501645014089     IErMin=13 ErrMin= 1.65D-07
 ErrMax= 1.65D-07  0.00D+00 EMaxC= 1.00D-01 BMatC= 3.96D-12 BMatP= 7.13D-11
 IDIUse=1 WtCom= 1.00D+00 WtEn= 0.00D+00
 Coeff-Com:  0.128D-05-0.140D-04-0.228D-04-0.876D-04 0.126D-03 0.754D-03
 Coeff-Com: -0.893D-03-0.321D-02 0.739D-03 0.410D-01-0.371D-01-0.322D+00
 Coeff-Com:  0.132D+01
 Coeff:      0.128D-05-0.140D-04-0.228D-04-0.876D-04 0.126D-03 0.754D-03
 Coeff:     -0.893D-03-0.321D-02 0.739D-03 0.410D-01-0.371D-01-0.322D+00
 Coeff:      0.132D+01
 Gap=     0.504 Goal=   None    Shift=    0.000
 RMSDP=1.89D-08 MaxDP=5.59D-07 DE=-2.29D-10 OVMax= 1.56D-06

 Cycle  14  Pass 1  IDiag  1:
 E= -279.501645014102     Delta-E=       -0.000000000012 Rises=F Damp=F
 DIIS: error= 2.48D-08 at cycle  14 NSaved=  14.
 NSaved=14 IEnMin=14 EnMin= -279.501645014102     IErMin=14 ErrMin= 2.48D-08
 ErrMax= 2.48D-08  0.00D+00 EMaxC= 1.00D-01 BMatC= 1.91D-13 BMatP= 3.96D-12
 IDIUse=1 WtCom= 1.00D+00 WtEn= 0.00D+00
 Coeff-Com: -0.187D-06 0.306D-05 0.555D-05 0.432D-05-0.818D-04 0.474D-04
 Coeff-Com:  0.283D-03 0.210D-03-0.244D-02 0.158D-02 0.169D-01-0.262D-01
 Coeff-Com: -0.198D+00 0.121D+01
 Coeff:     -0.187D-06 0.306D-05 0.555D-05 0.432D-05-0.818D-04 0.474D-04
 Coeff:      0.283D-03 0.210D-03-0.244D-02 0.158D-02 0.169D-01-0.262D-01
 Coeff:     -0.198D+00 0.121D+01
 Gap=     0.504 Goal=   None    Shift=    0.000
 RMSDP=3.74D-09 MaxDP=8.93D-08 DE=-1.24D-11 OVMax= 3.36D-07

 SCF Done:  E(RHF) =  -279.501645014     A.U. after   14 cycles
            NFock= 14  Conv=0.37D-08     -V/T= 2.0023
 KE= 2.788541776689D+02 PE=-8.953944064341D+02 EE= 2.200121179045D+02
 Leave Link  502 at Mon Feb 14 22:13:13 2022, MaxMem= 16106127360 cpu:              59.7 elap:               3.8
 (Enter /sw/contrib/gaussian/g16/B01/g16/l801.exe)
 ExpMin= 2.53D-02 ExpMax= 1.53D+04 ExpMxC= 5.22D+02 IAcc=3 IRadAn=         5 AccDes= 0.00D+00
 HarFok:  IExCor=  205 AccDes= 0.00D+00 IRadAn=         5 IDoV=-2 UseB2=F ITyADJ=14
 ICtDFT= 12500011 ScaDFX=  1.000000  1.000000  1.000000  1.000000
 Largest valence mixing into a core orbital is  2.08D-04
 Largest core mixing into a valence orbital is  3.64D-05
 Range of M.O.s used for correlation:     5   207
 NBasis=   207 NAE=    16 NBE=    16 NFC=     4 NFV=     0
 NROrb=    203 NOA=    12 NOB=    12 NVA=   191 NVB=   191

 **** Warning!!: The largest alpha MO coefficient is  0.17562726D+02

 Leave Link  801 at Mon Feb 14 22:13:13 2022, MaxMem= 16106127360 cpu:               2.3 elap:               0.1
 (Enter /sw/contrib/gaussian/g16/B01/g16/l906.exe)
 Frozen-core derivative calculation, NFC=   4 NFV=   0.
 FulOut=F Deriv=T AODrv=F NAtomX=     5
   MMem=          76  MDisk=          12 MDiskD=          12
  W3Min=      811440 MinDsk=     1524655 NBas6D=         245
 NBas2D=       30762    NTT=       30135    LW2=     3500000
    MDV= 16105579899 MDiskM=      328644 NBas2p=       30466
 Fully in-core method, ICMem=   960157634.
 IMap=   1   2   3   4   5   6   7   8   9  10  11  12  13  14  15  16
 JobTyp=1 Pass  1 fully in-core, NPsUse= 28.
 Compute canonical integrals.
 FoFCou: FMM=F IPFlag=           0 FMFlag=           0 FMFlg1=           0
         NFxFlg=           0 DoJE=F BraDBF=F KetDBF=F FulRan=T
         wScrn=  0.000000 ICntrl=       600 IOpCl=  1 I1Cent=           0 NGrid=           0
         NMat0=    1 NMatS0=  30762 NMatT0=    0 NMatD0=    1 NMtDS0=    0 NMtDT0=    0
 Symmetry not used in FoFCou.
 Spin components of T(2) and E(2):
     alpha-alpha T2 =       0.3399616632D-01 E2=     -0.1223842119D+00
     alpha-beta  T2 =       0.1867907384D+00 E2=     -0.7002071209D+00
     beta-beta   T2 =       0.3399616632D-01 E2=     -0.1223842119D+00
 The integrals were generated   1 times.
 ANorm=    0.1120171001D+01
 E2 =    -0.9449755447D+00 EUMP2 =    -0.28044662055880D+03
 Leave Link  906 at Mon Feb 14 22:13:22 2022, MaxMem= 16106127360 cpu:             246.1 elap:               8.8
 (Enter /sw/contrib/gaussian/g16/B01/g16/l1002.exe)
 Minotr:  Closed shell wavefunction.
          Computing MP2/KS-MP2 derivatives.
          Using Z-Vector for PSCF gradient.
          Skipping F1 and S1 gradient terms here.
          Frozen-core window.
          Direct CPHF calculation.
          Differentiating once with respect to electric field.
                with respect to dipole field.
          Electric field/nuclear overlap derivatives assumed to be zero.
          Using symmetry in CPHF.
          Requested convergence is 1.0D-10 RMS, and 1.0D-09 maximum.
          NewPWx=F KeepS1=T KeepF1=T KeepIn=T MapXYZ=F SortEE=F KeepMc=T.
 Keep R1 ints in memory in symmetry-blocked form, NReq=348888868.
 FoFCou: FMM=F IPFlag=           0 FMFlag=           0 FMFlg1=           0
         NFxFlg=           0 DoJE=F BraDBF=F KetDBF=F FulRan=T
         wScrn=  0.000000 ICntrl=       600 IOpCl=  0 I1Cent=           0 NGrid=           0
         NMat0=    1 NMatS0=  21528 NMatT0=    0 NMatD0=    1 NMtDS0=    0 NMtDT0=    0
 Petite list used in FoFCou.
          MDV=   16106127360 using IRadAn=       5.
          Solving linear equations separately, MaxMat=       0.
          There are     1 degrees of freedom in the 1st order CPHF.  IDoFFX=0 NUNeed=     1.
 LinEq1:  Iter=  0 NonCon=     1 RMS=5.93D-03 Max=1.31D-01 NDo=     1
 AX will form     1 AO Fock derivatives at one time.
 LinEq1:  Iter=  1 NonCon=     1 RMS=1.90D-03 Max=3.81D-02 NDo=     1
 LinEq1:  Iter=  2 NonCon=     1 RMS=8.64D-04 Max=1.41D-02 NDo=     1
 LinEq1:  Iter=  3 NonCon=     1 RMS=3.85D-04 Max=7.79D-03 NDo=     1
 LinEq1:  Iter=  4 NonCon=     1 RMS=1.18D-04 Max=1.85D-03 NDo=     1
 LinEq1:  Iter=  5 NonCon=     1 RMS=4.38D-05 Max=6.95D-04 NDo=     1
 LinEq1:  Iter=  6 NonCon=     1 RMS=1.96D-05 Max=2.32D-04 NDo=     1
 LinEq1:  Iter=  7 NonCon=     1 RMS=7.93D-06 Max=1.59D-04 NDo=     1
 LinEq1:  Iter=  8 NonCon=     1 RMS=3.42D-06 Max=3.39D-05 NDo=     1
 LinEq1:  Iter=  9 NonCon=     1 RMS=9.42D-07 Max=1.31D-05 NDo=     1
 LinEq1:  Iter= 10 NonCon=     1 RMS=1.85D-07 Max=2.02D-06 NDo=     1
 LinEq1:  Iter= 11 NonCon=     1 RMS=3.47D-08 Max=3.63D-07 NDo=     1
 LinEq1:  Iter= 12 NonCon=     1 RMS=8.34D-09 Max=1.34D-07 NDo=     1
 LinEq1:  Iter= 13 NonCon=     1 RMS=1.50D-09 Max=2.60D-08 NDo=     1
 LinEq1:  Iter= 14 NonCon=     1 RMS=2.71D-10 Max=3.82D-09 NDo=     1
 LinEq1:  Iter= 15 NonCon=     0 RMS=4.96D-11 Max=5.48D-10 NDo=     1
 Linear equations converged to 1.000D-10 1.000D-09 after    15 iterations.
 End of Minotr F.D. properties file   721 does not exist.
 End of Minotr F.D. properties file   722 does not exist.
 End of Minotr F.D. properties file   788 does not exist.
 Leave Link 1002 at Mon Feb 14 22:13:26 2022, MaxMem= 16106127360 cpu:              52.8 elap:               3.9
 (Enter /sw/contrib/gaussian/g16/B01/g16/l601.exe)
 Copying SCF densities to generalized density rwf, IOpCl= 0 IROHF=0.

 **********************************************************************

            Population analysis using the MP2 Density.

 **********************************************************************

 Orbital symmetries:
       Occupied  (A') (A') (A') (A') (A') (A') (A') (A') (A') (A')
                 (A") (A') (A") (A') (A") (A')
       Virtual   (A') (A") (A') (A') (A') (A") (A') (A') (A") (A')
                 (A") (A') (A') (A') (A") (A') (A') (A") (A') (A')
                 (A') (A') (A') (A') (A') (A") (A') (A") (A') (A')
                 (A") (A') (A") (A') (A') (A") (A') (A") (A') (A')
                 (A") (A') (A") (A') (A') (A") (A') (A') (A") (A')
                 (A") (A') (A') (A') (A") (A') (A") (A') (A") (A')
                 (A') (A') (A") (A') (A') (A") (A') (A") (A') (A')
                 (A") (A') (A') (A") (A") (A') (A') (A") (A') (A')
                 (A') (A") (A') (A") (A") (A') (A') (A") (A') (A')
                 (A") (A') (A') (A") (A') (A") (A') (A") (A') (A')
                 (A") (A') (A") (A') (A') (A") (A') (A') (A") (A')
                 (A") (A') (A') (A') (A") (A') (A') (A') (A") (A')
                 (A") (A') (A") (A') (A') (A") (A") (A') (A") (A')
                 (A') (A') (A') (A") (A") (A") (A') (A') (A') (A')
                 (A") (A') (A") (A') (A') (A") (A') (A') (A') (A')
                 (A") (A') (A') (A") (A') (A") (A') (A") (A') (A")
                 (A') (A") (A') (A") (A') (A") (A") (A') (A") (A')
                 (A") (A') (A") (A') (A") (A') (A") (A") (A') (A')
                 (A') (A') (A') (A') (A') (A') (A') (A') (A') (A')
                 (A')
 The electronic state is 1-A'.
 Alpha  occ. eigenvalues --  -20.69036 -20.68385 -20.65917 -15.81326  -1.62509
 Alpha  occ. eigenvalues --   -1.49481  -1.25338  -0.94840  -0.77209  -0.75961
 Alpha  occ. eigenvalues --   -0.71204  -0.67904  -0.61996  -0.58832  -0.48463
 Alpha  occ. eigenvalues --   -0.47397
 Alpha virt. eigenvalues --    0.02973   0.07114   0.08618   0.10169   0.13388
 Alpha virt. eigenvalues --    0.13388   0.14414   0.15444   0.17839   0.19412
 Alpha virt. eigenvalues --    0.19986   0.20659   0.22079   0.23666   0.23755
 Alpha virt. eigenvalues --    0.26693   0.29241   0.30352   0.31025   0.34381
 Alpha virt. eigenvalues --    0.34958   0.38763   0.42252   0.43209   0.52830
 Alpha virt. eigenvalues --    0.52847   0.55801   0.58042   0.62525   0.64083
 Alpha virt. eigenvalues --    0.67478   0.68465   0.70462   0.71165   0.72356
 Alpha virt. eigenvalues --    0.72918   0.74346   0.79266   0.79373   0.81104
 Alpha virt. eigenvalues --    0.81319   0.83116   0.86817   0.90911   0.92236
 Alpha virt. eigenvalues --    0.92895   0.95641   0.97512   0.98494   1.01695
 Alpha virt. eigenvalues --    1.05194   1.05498   1.08304   1.11730   1.14194
 Alpha virt. eigenvalues --    1.19030   1.21839   1.23331   1.33947   1.35238
 Alpha virt. eigenvalues --    1.38804   1.45544   1.48759   1.50760   1.53768
 Alpha virt. eigenvalues --    1.56815   1.57948   1.61254   1.66464   1.67141
 Alpha virt. eigenvalues --    1.70198   1.79225   1.82988   1.83515   1.88078
 Alpha virt. eigenvalues --    1.90798   1.95670   1.99353   2.00297   2.08073
 Alpha virt. eigenvalues --    2.12292   2.13057   2.15146   2.22629   2.26561
 Alpha virt. eigenvalues --    2.26770   2.28948   2.31462   2.34717   2.38633
 Alpha virt. eigenvalues --    2.42683   2.42839   2.45128   2.45907   2.47858
 Alpha virt. eigenvalues --    2.50070   2.58869   2.59888   2.62232   2.62436
 Alpha virt. eigenvalues --    2.63419   2.67144   2.75328   2.81620   2.84960
 Alpha virt. eigenvalues --    2.89260   2.89346   2.93924   2.95273   3.02707
 Alpha virt. eigenvalues --    3.06421   3.12668   3.20511   3.22397   3.31924
 Alpha virt. eigenvalues --    3.33772   3.52609   3.63835   3.83846   3.84413
 Alpha virt. eigenvalues --    4.14958   4.16778   4.18481   4.25807   4.34857
 Alpha virt. eigenvalues --    4.39355   4.46339   4.52047   4.65659   4.71212
 Alpha virt. eigenvalues --    4.80197   4.82909   4.83123   4.89647   5.02472
 Alpha virt. eigenvalues --    5.07639   5.10702   5.14610   5.17375   5.24437
 Alpha virt. eigenvalues --    5.27435   5.30445   5.33088   5.35198   5.60282
 Alpha virt. eigenvalues --    5.67349   5.78403   5.82923   5.95667   6.16959
 Alpha virt. eigenvalues --    6.31091   6.33613   6.39488   6.49623   6.50893
 Alpha virt. eigenvalues --    6.61521   6.66815   6.70533   6.75801   6.76508
 Alpha virt. eigenvalues --    6.83640   6.89317   7.01725   7.05701   7.05898
 Alpha virt. eigenvalues --    7.09195   7.12312   7.15172   7.18249   7.22623
 Alpha virt. eigenvalues --    7.24265   7.30779   7.32550   7.34747   7.39879
 Alpha virt. eigenvalues --    7.43108   7.48296   7.60949   7.61238   7.63136
 Alpha virt. eigenvalues --    7.66958   7.79883   7.88024   8.09427   8.31550
 Alpha virt. eigenvalues --    8.40919   8.54337  13.40093  14.37904  15.16913
 Alpha virt. eigenvalues --   16.15815
          Condensed to atoms (all electrons):
               1          2          3          4          5
     1  H    0.589661   0.127988   0.020265   0.012512  -0.000611
     2  O    0.127988   8.325658  -0.175824  -0.089341   0.015830
     3  O    0.020265  -0.175824   8.469744  -0.125187  -0.043643
     4  N    0.012512  -0.089341  -0.125187   6.962513  -0.053684
     5  O   -0.000611   0.015830  -0.043643  -0.053684   8.275811
 Mulliken charges:
               1
     1  H    0.250184
     2  O   -0.204311
     3  O   -0.145355
     4  N    0.293187
     5  O   -0.193705
 Sum of Mulliken charges =  -0.00000
 Mulliken charges with hydrogens summed into heavy atoms:
               1
     2  O    0.045873
     3  O   -0.145355
     4  N    0.293187
     5  O   -0.193705
 Electronic spatial extent (au):  <R**2>=            251.8670
 Charge=             -0.0000 electrons
 Dipole moment (field-independent basis, Debye):
    X=              0.5113    Y=              1.3440    Z=              0.0000  Tot=              1.4380
 Quadrupole moment (field-independent basis, Debye-Ang):
   XX=            -22.5088   YY=            -18.6079   ZZ=            -22.0041
   XY=              3.2253   XZ=             -0.0000   YZ=              0.0000
 Traceless Quadrupole moment (field-independent basis, Debye-Ang):
   XX=             -1.4685   YY=              2.4324   ZZ=             -0.9638
   XY=              3.2253   XZ=             -0.0000   YZ=              0.0000
 Octapole moment (field-independent basis, Debye-Ang**2):
  XXX=              2.7997  YYY=             11.2699  ZZZ=             -0.0000  XYY=              7.8707
  XXY=              6.5664  XXZ=              0.0000  XZZ=             -1.5866  YZZ=             -0.8478
  YYZ=              0.0000  XYZ=              0.0000
 Hexadecapole moment (field-independent basis, Debye-Ang**3):
 XXXX=           -158.6416 YYYY=            -88.6752 ZZZZ=            -18.2232 XXXY=            -36.3937
 XXXZ=             -0.0000 YYYX=            -30.4452 YYYZ=             -0.0000 ZZZX=             -0.0000
 ZZZY=             -0.0000 XXYY=            -33.9529 XXZZ=            -30.8844 YYZZ=            -20.4702
 XXYZ=             -0.0000 YYXZ=             -0.0000 ZZXY=            -14.9195
 N-N= 1.170264658465D+02 E-N=-8.961763910887D+02  KE= 2.802059546509D+02
 Symmetry A'   KE= 2.662313126453D+02
 Symmetry A"   KE= 1.397464200555D+01
 No NMR shielding tensors so no spin-rotation constants.
 Leave Link  601 at Mon Feb 14 22:13:26 2022, MaxMem= 16106127360 cpu:               4.8 elap:               0.2
 (Enter /sw/contrib/gaussian/g16/B01/g16/l9999.exe)
 1\1\GINC-N2126\SP\RMP2-FC\Aug-CC-pVTZ\H1N1O3\CGAVINH\14-Feb-2022\0\\#p
  SP mp2/aug-cc-pvtz density=current\\title\\0,1\H\O,1,0.96897556\O,2,1
 .45491931,1,97.59494903\N,3,1.45878406,2,102.29752444,1,180.,0\O,4,1.1
 7072885,3,107.8247868,2,180.,0\\Version=ES64L-G16RevB.01\State=1-A'\HF
 =-279.501645\MP2=-280.4466206\RMSD=3.738e-09\Dipole=-0.1490556,0.,-0.5
 457527\Quadrupole=-1.5264816,-0.7165938,2.2430754,0.,2.0737304,0.\PG=C
 S [SG(H1N1O3)]\\@


    WHAT WE HAVE LEARNED
 IS LIKE A HANDFUL OF EARTH;
  WHAT WE HAVE YET TO LEARN
   IS LIKE THE WHOLE WORLD.

         -- AVVAYIAR
 Job cpu time:       0 days  0 hours  6 minutes 30.5 seconds.
 Elapsed time:       0 days  0 hours  0 minutes 18.0 seconds.
 File lengths (MBytes):  RWF=     22 Int=      0 D2E=      0 Chk=      8 Scr=      1
 Normal termination of Gaussian 16 at Mon Feb 14 22:13:26 2022.
