 Entering Gaussian System, Link 0=g16
 Input=hoono_r4_1p159517.gjf
 Output=hoono_r4_1p159517.log
 Initial command:
 /sw/contrib/gaussian/g16/B01/g16/l1.exe "/scr/Gau-2595.inp" -scrdir="/scr/"
 Entering Link 1 = /sw/contrib/gaussian/g16/B01/g16/l1.exe PID=      2596.
  
 Copyright (c) 1988-2017, Gaussian, Inc.  All Rights Reserved.
  
 This is part of the Gaussian(R) 16 program.  It is based on
 the Gaussian(R) 09 system (copyright 2009, Gaussian, Inc.),
 the Gaussian(R) 03 system (copyright 2003, Gaussian, Inc.),
 the Gaussian(R) 98 system (copyright 1998, Gaussian, Inc.),
 the Gaussian(R) 94 system (copyright 1995, Gaussian, Inc.),
 the Gaussian 92(TM) system (copyright 1992, Gaussian, Inc.),
 the Gaussian 90(TM) system (copyright 1990, Gaussian, Inc.),
 the Gaussian 88(TM) system (copyright 1988, Gaussian, Inc.),
 the Gaussian 86(TM) system (copyright 1986, Carnegie Mellon
 University), and the Gaussian 82(TM) system (copyright 1983,
 Carnegie Mellon University). Gaussian is a federally registered
 trademark of Gaussian, Inc.
  
 This software contains proprietary and confidential information,
 including trade secrets, belonging to Gaussian, Inc.
  
 This software is provided under written license and may be
 used, copied, transmitted, or stored only in accord with that
 written license.
  
 The following legend is applicable only to US Government
 contracts under FAR:
  
                    RESTRICTED RIGHTS LEGEND
  
 Use, reproduction and disclosure by the US Government is
 subject to restrictions as set forth in subparagraphs (a)
 and (c) of the Commercial Computer Software - Restricted
 Rights clause in FAR 52.227-19.
  
 Gaussian, Inc.
 340 Quinnipiac St., Bldg. 40, Wallingford CT 06492
  
  
 ---------------------------------------------------------------
 Warning -- This program may not be used in any manner that
 competes with the business of Gaussian, Inc. or will provide
 assistance to any competitor of Gaussian, Inc.  The licensee
 of this program is prohibited from giving any competitor of
 Gaussian, Inc. access to this program.  By using this program,
 the user acknowledges that Gaussian, Inc. is engaged in the
 business of creating and licensing software in the field of
 computational chemistry and represents and warrants to the
 licensee that it is not a competitor of Gaussian, Inc. and that
 it will not use this program in any manner prohibited above.
 ---------------------------------------------------------------
  

 Cite this work as:
 Gaussian 16, Revision B.01,
 M. J. Frisch, G. W. Trucks, H. B. Schlegel, G. E. Scuseria, 
 M. A. Robb, J. R. Cheeseman, G. Scalmani, V. Barone, 
 G. A. Petersson, H. Nakatsuji, X. Li, M. Caricato, A. V. Marenich, 
 J. Bloino, B. G. Janesko, R. Gomperts, B. Mennucci, H. P. Hratchian, 
 J. V. Ortiz, A. F. Izmaylov, J. L. Sonnenberg, D. Williams-Young, 
 F. Ding, F. Lipparini, F. Egidi, J. Goings, B. Peng, A. Petrone, 
 T. Henderson, D. Ranasinghe, V. G. Zakrzewski, J. Gao, N. Rega, 
 G. Zheng, W. Liang, M. Hada, M. Ehara, K. Toyota, R. Fukuda, 
 J. Hasegawa, M. Ishida, T. Nakajima, Y. Honda, O. Kitao, H. Nakai, 
 T. Vreven, K. Throssell, J. A. Montgomery, Jr., J. E. Peralta, 
 F. Ogliaro, M. J. Bearpark, J. J. Heyd, E. N. Brothers, K. N. Kudin, 
 V. N. Staroverov, T. A. Keith, R. Kobayashi, J. Normand, 
 K. Raghavachari, A. P. Rendell, J. C. Burant, S. S. Iyengar, 
 J. Tomasi, M. Cossi, J. M. Millam, M. Klene, C. Adamo, R. Cammi, 
 J. W. Ochterski, R. L. Martin, K. Morokuma, O. Farkas, 
 J. B. Foresman, and D. J. Fox, Gaussian, Inc., Wallingford CT, 2016.
 
 ******************************************
 Gaussian 16:  ES64L-G16RevB.01 20-Dec-2017
                14-Feb-2022 
 ******************************************
 %nproc=28
 Will use up to   28 processors via shared memory.
 %mem=120GB
 %chk=hoono_r4_1p159517.chk
 -------------------------------------
 #p SP mp2/aug-cc-pvtz density=current
 -------------------------------------
 1/30=1,38=1,172=1/1;
 2/12=2,17=6,18=5,40=1/2;
 3/5=16,6=1,7=10,11=9,25=1,30=1,71=1/1,2,3;
 4//1;
 5/5=2,38=5/2;
 8/6=4,10=1/1;
 9/15=1,16=-3/6;
 10/5=1,13=10/2;
 6/7=2,8=2,9=2,10=2,22=-1/1;
 99/5=1,9=1/99;
 Leave Link    1 at Mon Feb 14 22:11:41 2022, MaxMem= 16106127360 cpu:               2.2 elap:               0.1
 (Enter /sw/contrib/gaussian/g16/B01/g16/l101.exe)
 -----
 title
 -----
 Symbolic Z-matrix:
 Charge =  0 Multiplicity = 1
 H
 O                    1    r1
 O                    2    r2       1    a1
 N                    3    r3       2    a2       1    d1       0
 O                    4    r4       3    a3       2    d2       0
       Variables:
  r1                    0.96898                  
  r2                    1.45492                  
  r3                    1.45878                  
  r4                    1.15952                  
  a1                   97.59495                  
  a2                  102.29752                  
  a3                  109.06955                  
  d1                  180.                       
  d2                  180.                       
 
 ITRead=  0  0  0  0  0
 MicOpt= -1 -1 -1 -1 -1
 NAtoms=      5 NQM=        5 NQMF=       0 NMMI=      0 NMMIF=      0
                NMic=       0 NMicF=      0.
                    Isotopes and Nuclear Properties:
 (Nuclear quadrupole moments (NQMom) in fm**2, nuclear magnetic moments (NMagM)
  in nuclear magnetons)

  Atom         1           2           3           4           5
 IAtWgt=           1          16          16          14          16
 AtmWgt=   1.0078250  15.9949146  15.9949146  14.0030740  15.9949146
 NucSpn=           1           0           0           2           0
 AtZEff=  -0.0000000  -0.0000000  -0.0000000  -0.0000000  -0.0000000
 NQMom=    0.0000000   0.0000000   0.0000000   2.0440000   0.0000000
 NMagM=    2.7928460   0.0000000   0.0000000   0.4037610   0.0000000
 AtZNuc=   1.0000000   8.0000000   8.0000000   7.0000000   8.0000000
 Leave Link  101 at Mon Feb 14 22:11:42 2022, MaxMem= 16106127360 cpu:               2.8 elap:               0.1
 (Enter /sw/contrib/gaussian/g16/B01/g16/l202.exe)
                          Input orientation:                          
 ---------------------------------------------------------------------
 Center     Atomic      Atomic             Coordinates (Angstroms)
 Number     Number       Type             X           Y           Z
 ---------------------------------------------------------------------
      1          1           0        0.000000    0.000000    0.000000
      2          8           0        0.000000    0.000000    0.968976
      3          8           0        1.442156    0.000000    1.161271
      4          7           0        1.561752    0.000000    2.615144
      5          8           0        2.685007    0.000000    2.902857
 ---------------------------------------------------------------------
                    Distance matrix (angstroms):
                    1          2          3          4          5
     1  H    0.000000
     2  O    0.968976   0.000000
     3  O    1.851584   1.454919   0.000000
     4  N    3.045989   2.269127   1.458784   0.000000
     5  O    3.954218   3.308951   2.139580   1.159518   0.000000
 Stoichiometry    HNO3
 Framework group  CS[SG(HNO3)]
 Deg. of freedom     7
 Full point group                 CS      NOp   2
 Largest Abelian subgroup         CS      NOp   2
 Largest concise Abelian subgroup C1      NOp   1
                         Standard orientation:                         
 ---------------------------------------------------------------------
 Center     Atomic      Atomic             Coordinates (Angstroms)
 Number     Number       Type             X           Y           Z
 ---------------------------------------------------------------------
      1          1           0        1.553276    1.680406   -0.000000
      2          8           0        1.454256    0.716504   -0.000000
      3          8           0       -0.000000    0.672589    0.000000
      4          7           0       -0.267541   -0.761452    0.000000
      5          8           0       -1.414317   -0.932873    0.000000
 ---------------------------------------------------------------------
 Rotational constants (GHZ):          55.0304605           5.0375998           4.6151222
 Leave Link  202 at Mon Feb 14 22:11:42 2022, MaxMem= 16106127360 cpu:               0.3 elap:               0.0
 (Enter /sw/contrib/gaussian/g16/B01/g16/l301.exe)
 Standard basis: Aug-CC-pVTZ (5D, 7F)
 Ernie: Thresh=  0.10000D-02 Tol=  0.10000D-05 Strict=F.
 Ernie:  12 primitive shells out of 131 were deleted.
 There are   166 symmetry adapted cartesian basis functions of A'  symmetry.
 There are    79 symmetry adapted cartesian basis functions of A"  symmetry.
 There are   136 symmetry adapted basis functions of A'  symmetry.
 There are    71 symmetry adapted basis functions of A"  symmetry.
   207 basis functions,   315 primitive gaussians,   245 cartesian basis functions
    16 alpha electrons       16 beta electrons
       nuclear repulsion energy       117.2147555978 Hartrees.
 IExCor=    0 DFT=F Ex=HF Corr=None ExCW=0 ScaHFX=  1.000000
 ScaDFX=  1.000000  1.000000  1.000000  1.000000 ScalE2=  1.000000  1.000000
 IRadAn=      5 IRanWt=     -1 IRanGd=            0 ICorTp=0 IEmpDi=  4
 NAtoms=    5 NActive=    5 NUniq=    5 SFac= 1.00D+00 NAtFMM=   60 NAOKFM=F Big=F
 Integral buffers will be    131072 words long.
 Raffenetti 1 integral format.
 Two-electron integral symmetry is turned on.
 Leave Link  301 at Mon Feb 14 22:11:42 2022, MaxMem= 16106127360 cpu:               1.7 elap:               0.1
 (Enter /sw/contrib/gaussian/g16/B01/g16/l302.exe)
 NPDir=0 NMtPBC=     1 NCelOv=     1 NCel=       1 NClECP=     1 NCelD=      1
         NCelK=      1 NCelE2=     1 NClLst=     1 CellRange=     0.0.
 One-electron integrals computed using PRISM.
 One-electron integral symmetry used in STVInt
 NBasis=   207 RedAO= T EigKep=  1.79D-04  NBF=   136    71
 NBsUse=   207 1.00D-06 EigRej= -1.00D+00 NBFU=   136    71
 Leave Link  302 at Mon Feb 14 22:11:42 2022, MaxMem= 16106127360 cpu:               5.1 elap:               0.2
 (Enter /sw/contrib/gaussian/g16/B01/g16/l303.exe)
 DipDrv:  MaxL=1.
 Leave Link  303 at Mon Feb 14 22:11:42 2022, MaxMem= 16106127360 cpu:               1.5 elap:               0.1
 (Enter /sw/contrib/gaussian/g16/B01/g16/l401.exe)
 ExpMin= 2.53D-02 ExpMax= 1.53D+04 ExpMxC= 5.22D+02 IAcc=3 IRadAn=         5 AccDes= 0.00D+00
 Harris functional with IExCor=  205 and IRadAn=       5 diagonalized for initial guess.
 HarFok:  IExCor=  205 AccDes= 0.00D+00 IRadAn=         5 IDoV= 1 UseB2=F ITyADJ=14
 ICtDFT=  3500011 ScaDFX=  1.000000  1.000000  1.000000  1.000000
 FoFCou: FMM=F IPFlag=           0 FMFlag=      100000 FMFlg1=           0
         NFxFlg=           0 DoJE=T BraDBF=F KetDBF=T FulRan=T
         wScrn=  0.000000 ICntrl=       500 IOpCl=  0 I1Cent=   200000004 NGrid=           0
         NMat0=    1 NMatS0=      1 NMatT0=    0 NMatD0=    1 NMtDS0=    0 NMtDT0=    0
 Petite list used in FoFCou.
 Harris En= -279.628372607432    
 JPrj=0 DoOrth=F DoCkMO=F.
 Initial guess orbital symmetries:
       Occupied  (A') (A') (A') (A') (A') (A') (A') (A') (A') (A')
                 (A") (A') (A') (A") (A") (A')
       Virtual   (A") (A') (A') (A') (A') (A') (A") (A') (A') (A')
                 (A") (A') (A") (A') (A') (A") (A') (A") (A') (A')
                 (A') (A') (A') (A') (A') (A") (A') (A") (A') (A')
                 (A") (A') (A") (A') (A') (A") (A') (A") (A') (A')
                 (A") (A') (A") (A') (A") (A') (A') (A') (A") (A")
                 (A') (A') (A') (A') (A") (A') (A") (A') (A") (A')
                 (A') (A') (A") (A') (A') (A") (A') (A") (A') (A')
                 (A") (A') (A') (A") (A") (A') (A') (A") (A') (A')
                 (A') (A") (A') (A") (A') (A") (A') (A") (A') (A')
                 (A') (A") (A') (A") (A') (A") (A") (A') (A') (A")
                 (A') (A') (A") (A') (A') (A') (A') (A") (A") (A')
                 (A") (A') (A') (A') (A") (A') (A') (A') (A") (A')
                 (A") (A') (A") (A') (A") (A') (A') (A") (A") (A')
                 (A') (A') (A') (A") (A") (A') (A") (A') (A') (A')
                 (A') (A") (A") (A') (A') (A") (A') (A') (A') (A')
                 (A") (A') (A') (A") (A') (A") (A') (A") (A') (A")
                 (A') (A") (A') (A") (A') (A") (A") (A") (A') (A')
                 (A") (A') (A") (A') (A') (A") (A") (A") (A') (A')
                 (A') (A') (A') (A') (A') (A') (A') (A') (A') (A')
                 (A')
 The electronic state of the initial guess is 1-A'.
 Leave Link  401 at Mon Feb 14 22:11:42 2022, MaxMem= 16106127360 cpu:               6.9 elap:               0.3
 (Enter /sw/contrib/gaussian/g16/B01/g16/l502.exe)
 Keep R1 ints in memory in symmetry-blocked form, NReq=348887737.
 FoFCou: FMM=F IPFlag=           0 FMFlag=           0 FMFlg1=           0
         NFxFlg=           0 DoJE=F BraDBF=F KetDBF=F FulRan=T
         wScrn=  0.000000 ICntrl=       600 IOpCl=  0 I1Cent=           0 NGrid=           0
         NMat0=    1 NMatS0=  21528 NMatT0=    0 NMatD0=    1 NMtDS0=    0 NMtDT0=    0
 Petite list used in FoFCou.
 Closed shell SCF:
 Using DIIS extrapolation, IDIIS=  1040.
 NGot= 16106127360 LenX= 15988850015 LenY= 15988789549
 Requested convergence on RMS density matrix=1.00D-08 within 128 cycles.
 Requested convergence on MAX density matrix=1.00D-06.
 Requested convergence on             energy=1.00D-06.
 No special actions if energy rises.

 Cycle   1  Pass 1  IDiag  1:
 E= -279.374400985194    
 DIIS: error= 2.69D-02 at cycle   1 NSaved=   1.
 NSaved= 1 IEnMin= 1 EnMin= -279.374400985194     IErMin= 1 ErrMin= 2.69D-02
 ErrMax= 2.69D-02  0.00D+00 EMaxC= 1.00D-01 BMatC= 4.36D-01 BMatP= 4.36D-01
 IDIUse=3 WtCom= 7.31D-01 WtEn= 2.69D-01
 Coeff-Com:  0.100D+01
 Coeff-En:   0.100D+01
 Coeff:      0.100D+01
 Gap=     0.517 Goal=   None    Shift=    0.000
 GapD=    0.517 DampG=2.000 DampE=0.500 DampFc=1.0000 IDamp=-1.
 RMSDP=1.60D-03 MaxDP=9.84D-02              OVMax= 1.08D-01

 Cycle   2  Pass 1  IDiag  1:
 E= -279.457287728204     Delta-E=       -0.082886743010 Rises=F Damp=F
 DIIS: error= 1.75D-02 at cycle   2 NSaved=   2.
 NSaved= 2 IEnMin= 2 EnMin= -279.457287728204     IErMin= 2 ErrMin= 1.75D-02
 ErrMax= 1.75D-02  0.00D+00 EMaxC= 1.00D-01 BMatC= 6.74D-02 BMatP= 4.36D-01
 IDIUse=3 WtCom= 8.25D-01 WtEn= 1.75D-01
 Coeff-Com:  0.186D+00 0.814D+00
 Coeff-En:   0.000D+00 0.100D+01
 Coeff:      0.154D+00 0.846D+00
 Gap=     0.524 Goal=   None    Shift=    0.000
 RMSDP=8.77D-04 MaxDP=3.64D-02 DE=-8.29D-02 OVMax= 6.75D-02

 Cycle   3  Pass 1  IDiag  1:
 E= -279.484465890043     Delta-E=       -0.027178161839 Rises=F Damp=F
 DIIS: error= 1.01D-02 at cycle   3 NSaved=   3.
 NSaved= 3 IEnMin= 3 EnMin= -279.484465890043     IErMin= 3 ErrMin= 1.01D-02
 ErrMax= 1.01D-02  0.00D+00 EMaxC= 1.00D-01 BMatC= 2.71D-02 BMatP= 6.74D-02
 IDIUse=3 WtCom= 8.99D-01 WtEn= 1.01D-01
 Coeff-Com: -0.327D-01 0.379D+00 0.654D+00
 Coeff-En:   0.000D+00 0.239D+00 0.761D+00
 Coeff:     -0.293D-01 0.365D+00 0.665D+00
 Gap=     0.508 Goal=   None    Shift=    0.000
 RMSDP=3.66D-04 MaxDP=1.48D-02 DE=-2.72D-02 OVMax= 3.63D-02

 Cycle   4  Pass 1  IDiag  1:
 E= -279.502368829692     Delta-E=       -0.017902939650 Rises=F Damp=F
 DIIS: error= 1.28D-03 at cycle   4 NSaved=   4.
 NSaved= 4 IEnMin= 4 EnMin= -279.502368829692     IErMin= 4 ErrMin= 1.28D-03
 ErrMax= 1.28D-03  0.00D+00 EMaxC= 1.00D-01 BMatC= 4.80D-04 BMatP= 2.71D-02
 IDIUse=3 WtCom= 9.87D-01 WtEn= 1.28D-02
 Coeff-Com: -0.116D-01 0.597D-01 0.162D+00 0.790D+00
 Coeff-En:   0.000D+00 0.000D+00 0.000D+00 0.100D+01
 Coeff:     -0.115D-01 0.590D-01 0.160D+00 0.793D+00
 Gap=     0.500 Goal=   None    Shift=    0.000
 RMSDP=8.84D-05 MaxDP=2.75D-03 DE=-1.79D-02 OVMax= 1.09D-02

 Cycle   5  Pass 1  IDiag  1:
 E= -279.503015357801     Delta-E=       -0.000646528108 Rises=F Damp=F
 DIIS: error= 7.25D-04 at cycle   5 NSaved=   5.
 NSaved= 5 IEnMin= 5 EnMin= -279.503015357801     IErMin= 5 ErrMin= 7.25D-04
 ErrMax= 7.25D-04  0.00D+00 EMaxC= 1.00D-01 BMatC= 8.41D-05 BMatP= 4.80D-04
 IDIUse=3 WtCom= 9.93D-01 WtEn= 7.25D-03
 Coeff-Com:  0.599D-02-0.720D-01-0.117D+00 0.221D-01 0.116D+01
 Coeff-En:   0.000D+00 0.000D+00 0.000D+00 0.000D+00 0.100D+01
 Coeff:      0.594D-02-0.715D-01-0.116D+00 0.219D-01 0.116D+01
 Gap=     0.500 Goal=   None    Shift=    0.000
 RMSDP=7.44D-05 MaxDP=2.04D-03 DE=-6.47D-04 OVMax= 1.07D-02

 Cycle   6  Pass 1  IDiag  1:
 E= -279.503316026727     Delta-E=       -0.000300668926 Rises=F Damp=F
 DIIS: error= 2.74D-04 at cycle   6 NSaved=   6.
 NSaved= 6 IEnMin= 6 EnMin= -279.503316026727     IErMin= 6 ErrMin= 2.74D-04
 ErrMax= 2.74D-04  0.00D+00 EMaxC= 1.00D-01 BMatC= 1.60D-05 BMatP= 8.41D-05
 IDIUse=3 WtCom= 9.97D-01 WtEn= 2.74D-03
 Coeff-Com:  0.788D-03-0.869D-03-0.715D-04-0.127D+00-0.198D+00 0.132D+01
 Coeff-En:   0.000D+00 0.000D+00 0.000D+00 0.000D+00 0.000D+00 0.100D+01
 Coeff:      0.786D-03-0.866D-03-0.713D-04-0.126D+00-0.197D+00 0.132D+01
 Gap=     0.500 Goal=   None    Shift=    0.000
 RMSDP=4.38D-05 MaxDP=1.20D-03 DE=-3.01D-04 OVMax= 5.30D-03

 Cycle   7  Pass 1  IDiag  1:
 E= -279.503384883057     Delta-E=       -0.000068856331 Rises=F Damp=F
 DIIS: error= 1.21D-04 at cycle   7 NSaved=   7.
 NSaved= 7 IEnMin= 7 EnMin= -279.503384883057     IErMin= 7 ErrMin= 1.21D-04
 ErrMax= 1.21D-04  0.00D+00 EMaxC= 1.00D-01 BMatC= 4.72D-06 BMatP= 1.60D-05
 IDIUse=3 WtCom= 9.99D-01 WtEn= 1.21D-03
 Coeff-Com: -0.907D-03 0.136D-01 0.264D-01-0.266D-01-0.297D+00 0.418D+00
 Coeff-Com:  0.866D+00
 Coeff-En:   0.000D+00 0.000D+00 0.000D+00 0.000D+00 0.000D+00 0.000D+00
 Coeff-En:   0.100D+01
 Coeff:     -0.906D-03 0.136D-01 0.264D-01-0.265D-01-0.296D+00 0.418D+00
 Coeff:      0.866D+00
 Gap=     0.500 Goal=   None    Shift=    0.000
 RMSDP=1.34D-05 MaxDP=3.77D-04 DE=-6.89D-05 OVMax= 1.54D-03

 Cycle   8  Pass 1  IDiag  1:
 E= -279.503393917537     Delta-E=       -0.000009034480 Rises=F Damp=F
 DIIS: error= 5.34D-05 at cycle   8 NSaved=   8.
 NSaved= 8 IEnMin= 8 EnMin= -279.503393917537     IErMin= 8 ErrMin= 5.34D-05
 ErrMax= 5.34D-05  0.00D+00 EMaxC= 1.00D-01 BMatC= 5.63D-07 BMatP= 4.72D-06
 IDIUse=1 WtCom= 1.00D+00 WtEn= 0.00D+00
 Coeff-Com: -0.452D-03 0.364D-02 0.794D-02 0.268D-01-0.449D-01-0.185D+00
 Coeff-Com:  0.130D+00 0.106D+01
 Coeff:     -0.452D-03 0.364D-02 0.794D-02 0.268D-01-0.449D-01-0.185D+00
 Coeff:      0.130D+00 0.106D+01
 Gap=     0.500 Goal=   None    Shift=    0.000
 RMSDP=6.89D-06 MaxDP=1.98D-04 DE=-9.03D-06 OVMax= 7.50D-04

 Cycle   9  Pass 1  IDiag  1:
 E= -279.503395614522     Delta-E=       -0.000001696985 Rises=F Damp=F
 DIIS: error= 1.44D-05 at cycle   9 NSaved=   9.
 NSaved= 9 IEnMin= 9 EnMin= -279.503395614522     IErMin= 9 ErrMin= 1.44D-05
 ErrMax= 1.44D-05  0.00D+00 EMaxC= 1.00D-01 BMatC= 6.01D-08 BMatP= 5.63D-07
 IDIUse=1 WtCom= 1.00D+00 WtEn= 0.00D+00
 Coeff-Com:  0.110D-03-0.162D-02-0.291D-02-0.140D-02 0.326D-01-0.352D-02
 Coeff-Com: -0.148D+00-0.101D+00 0.122D+01
 Coeff:      0.110D-03-0.162D-02-0.291D-02-0.140D-02 0.326D-01-0.352D-02
 Coeff:     -0.148D+00-0.101D+00 0.122D+01
 Gap=     0.500 Goal=   None    Shift=    0.000
 RMSDP=1.80D-06 MaxDP=5.98D-05 DE=-1.70D-06 OVMax= 1.56D-04

 Cycle  10  Pass 1  IDiag  1:
 E= -279.503395751039     Delta-E=       -0.000000136517 Rises=F Damp=F
 DIIS: error= 3.85D-06 at cycle  10 NSaved=  10.
 NSaved=10 IEnMin=10 EnMin= -279.503395751039     IErMin=10 ErrMin= 3.85D-06
 ErrMax= 3.85D-06  0.00D+00 EMaxC= 1.00D-01 BMatC= 4.74D-09 BMatP= 6.01D-08
 IDIUse=1 WtCom= 1.00D+00 WtEn= 0.00D+00
 Coeff-Com:  0.342D-04-0.295D-03-0.435D-03-0.261D-02 0.270D-02 0.187D-01
 Coeff-Com: -0.137D-01-0.807D-01-0.483D-01 0.112D+01
 Coeff:      0.342D-04-0.295D-03-0.435D-03-0.261D-02 0.270D-02 0.187D-01
 Coeff:     -0.137D-01-0.807D-01-0.483D-01 0.112D+01
 Gap=     0.500 Goal=   None    Shift=    0.000
 RMSDP=4.65D-07 MaxDP=1.89D-05 DE=-1.37D-07 OVMax= 3.63D-05

 Cycle  11  Pass 1  IDiag  1:
 E= -279.503395761247     Delta-E=       -0.000000010208 Rises=F Damp=F
 DIIS: error= 1.78D-06 at cycle  11 NSaved=  11.
 NSaved=11 IEnMin=11 EnMin= -279.503395761247     IErMin=11 ErrMin= 1.78D-06
 ErrMax= 1.78D-06  0.00D+00 EMaxC= 1.00D-01 BMatC= 5.33D-10 BMatP= 4.74D-09
 IDIUse=1 WtCom= 1.00D+00 WtEn= 0.00D+00
 Coeff-Com: -0.192D-04 0.226D-03 0.456D-03 0.458D-03-0.404D-02-0.292D-02
 Coeff-Com:  0.174D-01 0.307D-01-0.130D+00-0.180D+00 0.127D+01
 Coeff:     -0.192D-04 0.226D-03 0.456D-03 0.458D-03-0.404D-02-0.292D-02
 Coeff:      0.174D-01 0.307D-01-0.130D+00-0.180D+00 0.127D+01
 Gap=     0.500 Goal=   None    Shift=    0.000
 RMSDP=1.56D-07 MaxDP=5.71D-06 DE=-1.02D-08 OVMax= 1.56D-05

 Cycle  12  Pass 1  IDiag  1:
 E= -279.503395762645     Delta-E=       -0.000000001398 Rises=F Damp=F
 DIIS: error= 5.38D-07 at cycle  12 NSaved=  12.
 NSaved=12 IEnMin=12 EnMin= -279.503395762645     IErMin=12 ErrMin= 5.38D-07
 ErrMax= 5.38D-07  0.00D+00 EMaxC= 1.00D-01 BMatC= 5.77D-11 BMatP= 5.33D-10
 IDIUse=1 WtCom= 1.00D+00 WtEn= 0.00D+00
 Coeff-Com:  0.903D-06-0.243D-04-0.537D-04 0.157D-03 0.956D-03-0.203D-02
 Coeff-Com: -0.371D-02 0.506D-02 0.385D-01-0.987D-01-0.310D+00 0.137D+01
 Coeff:      0.903D-06-0.243D-04-0.537D-04 0.157D-03 0.956D-03-0.203D-02
 Coeff:     -0.371D-02 0.506D-02 0.385D-01-0.987D-01-0.310D+00 0.137D+01
 Gap=     0.500 Goal=   None    Shift=    0.000
 RMSDP=6.30D-08 MaxDP=2.49D-06 DE=-1.40D-09 OVMax= 6.09D-06

 Cycle  13  Pass 1  IDiag  1:
 E= -279.503395762827     Delta-E=       -0.000000000182 Rises=F Damp=F
 DIIS: error= 1.49D-07 at cycle  13 NSaved=  13.
 NSaved=13 IEnMin=13 EnMin= -279.503395762827     IErMin=13 ErrMin= 1.49D-07
 ErrMax= 1.49D-07  0.00D+00 EMaxC= 1.00D-01 BMatC= 3.27D-12 BMatP= 5.77D-11
 IDIUse=1 WtCom= 1.00D+00 WtEn= 0.00D+00
 Coeff-Com:  0.120D-05-0.134D-04-0.218D-04-0.786D-04 0.122D-03 0.673D-03
 Coeff-Com: -0.623D-03-0.322D-02 0.369D-03 0.384D-01-0.246D-01-0.344D+00
 Coeff-Com:  0.133D+01
 Coeff:      0.120D-05-0.134D-04-0.218D-04-0.786D-04 0.122D-03 0.673D-03
 Coeff:     -0.623D-03-0.322D-02 0.369D-03 0.384D-01-0.246D-01-0.344D+00
 Coeff:      0.133D+01
 Gap=     0.500 Goal=   None    Shift=    0.000
 RMSDP=1.73D-08 MaxDP=5.05D-07 DE=-1.82D-10 OVMax= 1.45D-06

 Cycle  14  Pass 1  IDiag  1:
 E= -279.503395762837     Delta-E=       -0.000000000010 Rises=F Damp=F
 DIIS: error= 2.22D-08 at cycle  14 NSaved=  14.
 NSaved=14 IEnMin=14 EnMin= -279.503395762837     IErMin=14 ErrMin= 2.22D-08
 ErrMax= 2.22D-08  0.00D+00 EMaxC= 1.00D-01 BMatC= 1.59D-13 BMatP= 3.27D-12
 IDIUse=1 WtCom= 1.00D+00 WtEn= 0.00D+00
 Coeff-Com: -0.180D-06 0.296D-05 0.541D-05 0.462D-05-0.782D-04 0.383D-04
 Coeff-Com:  0.252D-03 0.245D-03-0.233D-02 0.928D-03 0.179D-01-0.250D-01
 Coeff-Com: -0.207D+00 0.121D+01
 Coeff:     -0.180D-06 0.296D-05 0.541D-05 0.462D-05-0.782D-04 0.383D-04
 Coeff:      0.252D-03 0.245D-03-0.233D-02 0.928D-03 0.179D-01-0.250D-01
 Coeff:     -0.207D+00 0.121D+01
 Gap=     0.500 Goal=   None    Shift=    0.000
 RMSDP=3.50D-09 MaxDP=8.36D-08 DE=-9.66D-12 OVMax= 3.16D-07

 SCF Done:  E(RHF) =  -279.503395763     A.U. after   14 cycles
            NFock= 14  Conv=0.35D-08     -V/T= 2.0022
 KE= 2.789014723380D+02 PE=-8.958002081994D+02 EE= 2.201805845007D+02
 Leave Link  502 at Mon Feb 14 22:11:46 2022, MaxMem= 16106127360 cpu:              57.0 elap:               3.7
 (Enter /sw/contrib/gaussian/g16/B01/g16/l801.exe)
 ExpMin= 2.53D-02 ExpMax= 1.53D+04 ExpMxC= 5.22D+02 IAcc=3 IRadAn=         5 AccDes= 0.00D+00
 HarFok:  IExCor=  205 AccDes= 0.00D+00 IRadAn=         5 IDoV=-2 UseB2=F ITyADJ=14
 ICtDFT= 12500011 ScaDFX=  1.000000  1.000000  1.000000  1.000000
 Largest valence mixing into a core orbital is  2.07D-04
 Largest core mixing into a valence orbital is  3.59D-05
 Range of M.O.s used for correlation:     5   207
 NBasis=   207 NAE=    16 NBE=    16 NFC=     4 NFV=     0
 NROrb=    203 NOA=    12 NOB=    12 NVA=   191 NVB=   191

 **** Warning!!: The largest alpha MO coefficient is  0.17650163D+02

 Leave Link  801 at Mon Feb 14 22:11:46 2022, MaxMem= 16106127360 cpu:               3.2 elap:               0.2
 (Enter /sw/contrib/gaussian/g16/B01/g16/l906.exe)
 Frozen-core derivative calculation, NFC=   4 NFV=   0.
 FulOut=F Deriv=T AODrv=F NAtomX=     5
   MMem=          76  MDisk=          12 MDiskD=          12
  W3Min=      811440 MinDsk=     1524655 NBas6D=         245
 NBas2D=       30762    NTT=       30135    LW2=     3500000
    MDV= 16105579885 MDiskM=      328644 NBas2p=       30466
 Fully in-core method, ICMem=   960157634.
 IMap=   1   2   3   4   5   6   7   8   9  10  11  12  13  14  15  16
 JobTyp=1 Pass  1 fully in-core, NPsUse= 28.
 Compute canonical integrals.
 FoFCou: FMM=F IPFlag=           0 FMFlag=           0 FMFlg1=           0
         NFxFlg=           0 DoJE=F BraDBF=F KetDBF=F FulRan=T
         wScrn=  0.000000 ICntrl=       600 IOpCl=  1 I1Cent=           0 NGrid=           0
         NMat0=    1 NMatS0=  30762 NMatT0=    0 NMatD0=    1 NMtDS0=    0 NMtDT0=    0
 Symmetry not used in FoFCou.
 Spin components of T(2) and E(2):
     alpha-alpha T2 =       0.3379574624D-01 E2=     -0.1221651740D+00
     alpha-beta  T2 =       0.1855672096D+00 E2=     -0.6988127510D+00
     beta-beta   T2 =       0.3379574624D-01 E2=     -0.1221651740D+00
 The integrals were generated   1 times.
 ANorm=    0.1119445712D+01
 E2 =    -0.9431430990D+00 EUMP2 =    -0.28044653886185D+03
 Leave Link  906 at Mon Feb 14 22:11:55 2022, MaxMem= 16106127360 cpu:             243.5 elap:               8.7
 (Enter /sw/contrib/gaussian/g16/B01/g16/l1002.exe)
 Minotr:  Closed shell wavefunction.
          Computing MP2/KS-MP2 derivatives.
          Using Z-Vector for PSCF gradient.
          Skipping F1 and S1 gradient terms here.
          Frozen-core window.
          Direct CPHF calculation.
          Differentiating once with respect to electric field.
                with respect to dipole field.
          Electric field/nuclear overlap derivatives assumed to be zero.
          Using symmetry in CPHF.
          Requested convergence is 1.0D-10 RMS, and 1.0D-09 maximum.
          NewPWx=F KeepS1=T KeepF1=T KeepIn=T MapXYZ=F SortEE=F KeepMc=T.
 Keep R1 ints in memory in symmetry-blocked form, NReq=348888868.
 FoFCou: FMM=F IPFlag=           0 FMFlag=           0 FMFlg1=           0
         NFxFlg=           0 DoJE=F BraDBF=F KetDBF=F FulRan=T
         wScrn=  0.000000 ICntrl=       600 IOpCl=  0 I1Cent=           0 NGrid=           0
         NMat0=    1 NMatS0=  21528 NMatT0=    0 NMatD0=    1 NMtDS0=    0 NMtDT0=    0
 Petite list used in FoFCou.
          MDV=   16106127360 using IRadAn=       5.
          Solving linear equations separately, MaxMat=       0.
          There are     1 degrees of freedom in the 1st order CPHF.  IDoFFX=0 NUNeed=     1.
 LinEq1:  Iter=  0 NonCon=     1 RMS=5.90D-03 Max=1.29D-01 NDo=     1
 AX will form     1 AO Fock derivatives at one time.
 LinEq1:  Iter=  1 NonCon=     1 RMS=1.87D-03 Max=3.67D-02 NDo=     1
 LinEq1:  Iter=  2 NonCon=     1 RMS=8.46D-04 Max=1.37D-02 NDo=     1
 LinEq1:  Iter=  3 NonCon=     1 RMS=3.73D-04 Max=7.28D-03 NDo=     1
 LinEq1:  Iter=  4 NonCon=     1 RMS=1.16D-04 Max=1.83D-03 NDo=     1
 LinEq1:  Iter=  5 NonCon=     1 RMS=4.20D-05 Max=6.59D-04 NDo=     1
 LinEq1:  Iter=  6 NonCon=     1 RMS=1.88D-05 Max=2.25D-04 NDo=     1
 LinEq1:  Iter=  7 NonCon=     1 RMS=7.51D-06 Max=1.53D-04 NDo=     1
 LinEq1:  Iter=  8 NonCon=     1 RMS=3.21D-06 Max=3.21D-05 NDo=     1
 LinEq1:  Iter=  9 NonCon=     1 RMS=8.80D-07 Max=1.27D-05 NDo=     1
 LinEq1:  Iter= 10 NonCon=     1 RMS=1.73D-07 Max=1.87D-06 NDo=     1
 LinEq1:  Iter= 11 NonCon=     1 RMS=3.26D-08 Max=3.34D-07 NDo=     1
 LinEq1:  Iter= 12 NonCon=     1 RMS=7.78D-09 Max=1.22D-07 NDo=     1
 LinEq1:  Iter= 13 NonCon=     1 RMS=1.39D-09 Max=2.44D-08 NDo=     1
 LinEq1:  Iter= 14 NonCon=     1 RMS=2.54D-10 Max=3.56D-09 NDo=     1
 LinEq1:  Iter= 15 NonCon=     0 RMS=4.70D-11 Max=5.44D-10 NDo=     1
 Linear equations converged to 1.000D-10 1.000D-09 after    15 iterations.
 End of Minotr F.D. properties file   721 does not exist.
 End of Minotr F.D. properties file   722 does not exist.
 End of Minotr F.D. properties file   788 does not exist.
 Leave Link 1002 at Mon Feb 14 22:11:59 2022, MaxMem= 16106127360 cpu:              53.6 elap:               4.0
 (Enter /sw/contrib/gaussian/g16/B01/g16/l601.exe)
 Copying SCF densities to generalized density rwf, IOpCl= 0 IROHF=0.

 **********************************************************************

            Population analysis using the MP2 Density.

 **********************************************************************

 Orbital symmetries:
       Occupied  (A') (A') (A') (A') (A') (A') (A') (A') (A') (A')
                 (A") (A') (A") (A') (A") (A')
       Virtual   (A') (A") (A') (A') (A") (A') (A') (A') (A") (A')
                 (A") (A') (A') (A') (A") (A') (A') (A") (A') (A')
                 (A') (A') (A') (A') (A") (A') (A') (A") (A') (A')
                 (A") (A') (A") (A') (A') (A") (A') (A') (A") (A')
                 (A") (A') (A") (A') (A') (A") (A') (A') (A") (A')
                 (A") (A') (A') (A') (A") (A') (A") (A') (A") (A')
                 (A') (A') (A") (A') (A') (A") (A') (A") (A') (A')
                 (A") (A') (A') (A") (A") (A') (A') (A") (A') (A')
                 (A') (A") (A') (A") (A") (A') (A') (A") (A') (A')
                 (A") (A') (A') (A") (A') (A") (A') (A") (A') (A')
                 (A") (A') (A") (A') (A') (A") (A') (A') (A") (A')
                 (A") (A') (A') (A') (A") (A') (A') (A') (A") (A')
                 (A") (A') (A") (A') (A') (A") (A") (A') (A") (A')
                 (A') (A') (A') (A") (A") (A") (A') (A') (A') (A')
                 (A") (A') (A") (A') (A') (A") (A') (A') (A') (A')
                 (A") (A') (A') (A") (A') (A") (A') (A") (A') (A")
                 (A') (A") (A') (A") (A') (A") (A") (A') (A") (A')
                 (A") (A') (A") (A') (A") (A') (A") (A") (A') (A')
                 (A') (A') (A') (A') (A') (A') (A') (A') (A') (A')
                 (A')
 The electronic state is 1-A'.
 Alpha  occ. eigenvalues --  -20.68823 -20.68477 -20.65853 -15.81120  -1.63334
 Alpha  occ. eigenvalues --   -1.49579  -1.25327  -0.94655  -0.77419  -0.76217
 Alpha  occ. eigenvalues --   -0.71426  -0.68065  -0.62262  -0.58867  -0.48425
 Alpha  occ. eigenvalues --   -0.47029
 Alpha virt. eigenvalues --    0.02993   0.07514   0.08575   0.10172   0.13374
 Alpha virt. eigenvalues --    0.13410   0.14432   0.15481   0.17847   0.19404
 Alpha virt. eigenvalues --    0.20023   0.20637   0.22118   0.23639   0.23746
 Alpha virt. eigenvalues --    0.26618   0.29458   0.30433   0.31099   0.34331
 Alpha virt. eigenvalues --    0.35012   0.38766   0.42254   0.43181   0.52711
 Alpha virt. eigenvalues --    0.53068   0.55909   0.58189   0.63183   0.63797
 Alpha virt. eigenvalues --    0.67099   0.68538   0.70651   0.71146   0.72451
 Alpha virt. eigenvalues --    0.73008   0.74466   0.79216   0.79276   0.80996
 Alpha virt. eigenvalues --    0.81375   0.83360   0.86918   0.90934   0.92299
 Alpha virt. eigenvalues --    0.92736   0.95722   0.97994   0.98561   1.01702
 Alpha virt. eigenvalues --    1.05275   1.05590   1.08481   1.11924   1.14228
 Alpha virt. eigenvalues --    1.19021   1.22238   1.23436   1.33970   1.35120
 Alpha virt. eigenvalues --    1.38806   1.45410   1.48836   1.51041   1.53833
 Alpha virt. eigenvalues --    1.56689   1.57949   1.61411   1.66671   1.67035
 Alpha virt. eigenvalues --    1.70289   1.79372   1.83028   1.83509   1.88136
 Alpha virt. eigenvalues --    1.90970   1.95320   1.99513   2.00582   2.07838
 Alpha virt. eigenvalues --    2.12134   2.13317   2.15116   2.22505   2.26536
 Alpha virt. eigenvalues --    2.26589   2.29063   2.31571   2.34767   2.38717
 Alpha virt. eigenvalues --    2.42702   2.43155   2.45453   2.46433   2.47854
 Alpha virt. eigenvalues --    2.50343   2.59110   2.59903   2.62308   2.62922
 Alpha virt. eigenvalues --    2.63619   2.67118   2.76193   2.82984   2.85997
 Alpha virt. eigenvalues --    2.88971   2.89734   2.92857   2.96095   3.02772
 Alpha virt. eigenvalues --    3.06637   3.12551   3.20571   3.22976   3.31891
 Alpha virt. eigenvalues --    3.34352   3.52193   3.64438   3.83989   3.84786
 Alpha virt. eigenvalues --    4.15014   4.16476   4.18566   4.28456   4.35309
 Alpha virt. eigenvalues --    4.39507   4.46638   4.52170   4.67590   4.71276
 Alpha virt. eigenvalues --    4.81051   4.82715   4.83219   4.89524   5.02150
 Alpha virt. eigenvalues --    5.07857   5.10791   5.13867   5.18246   5.24669
 Alpha virt. eigenvalues --    5.27314   5.30679   5.33152   5.36708   5.60845
 Alpha virt. eigenvalues --    5.69255   5.78076   5.83416   5.95460   6.17166
 Alpha virt. eigenvalues --    6.31096   6.33952   6.39612   6.49363   6.50561
 Alpha virt. eigenvalues --    6.61545   6.66953   6.70424   6.75965   6.76549
 Alpha virt. eigenvalues --    6.83962   6.90249   7.01736   7.05908   7.05987
 Alpha virt. eigenvalues --    7.09186   7.13019   7.15282   7.18325   7.23340
 Alpha virt. eigenvalues --    7.24422   7.31275   7.34579   7.35599   7.41203
 Alpha virt. eigenvalues --    7.43351   7.48605   7.61050   7.63404   7.64375
 Alpha virt. eigenvalues --    7.66952   7.79896   7.90561   8.09815   8.31941
 Alpha virt. eigenvalues --    8.41064   8.54709  13.41132  14.48306  15.16708
 Alpha virt. eigenvalues --   16.50438
          Condensed to atoms (all electrons):
               1          2          3          4          5
     1  H    0.589828   0.128396   0.020042   0.012510  -0.000652
     2  O    0.128396   8.322879  -0.173852  -0.090462   0.015543
     3  O    0.020042  -0.173852   8.479374  -0.134686  -0.041211
     4  N    0.012510  -0.090462  -0.134686   6.976344  -0.056560
     5  O   -0.000652   0.015543  -0.041211  -0.056560   8.273440
 Mulliken charges:
               1
     1  H    0.249876
     2  O   -0.202505
     3  O   -0.149666
     4  N    0.292854
     5  O   -0.190559
 Sum of Mulliken charges =  -0.00000
 Mulliken charges with hydrogens summed into heavy atoms:
               1
     2  O    0.047371
     3  O   -0.149666
     4  N    0.292854
     5  O   -0.190559
 Electronic spatial extent (au):  <R**2>=            251.8496
 Charge=              0.0000 electrons
 Dipole moment (field-independent basis, Debye):
    X=              0.4651    Y=              1.3108    Z=              0.0000  Tot=              1.3909
 Quadrupole moment (field-independent basis, Debye-Ang):
   XX=            -22.4089   YY=            -18.6158   ZZ=            -21.9917
   XY=              3.2945   XZ=              0.0000   YZ=             -0.0000
 Traceless Quadrupole moment (field-independent basis, Debye-Ang):
   XX=             -1.4034   YY=              2.3897   ZZ=             -0.9862
   XY=              3.2945   XZ=              0.0000   YZ=             -0.0000
 Octapole moment (field-independent basis, Debye-Ang**2):
  XXX=              2.7702  YYY=             11.0215  ZZZ=              0.0000  XYY=              7.8064
  XXY=              6.5403  XXZ=             -0.0000  XZZ=             -1.6160  YZZ=             -0.8920
  YYZ=             -0.0000  XYZ=             -0.0000
 Hexadecapole moment (field-independent basis, Debye-Ang**3):
 XXXX=           -158.0000 YYYY=            -88.9864 ZZZZ=            -18.2245 XXXY=            -36.2642
 XXXZ=              0.0000 YYYX=            -30.3936 YYYZ=              0.0000 ZZZX=              0.0000
 ZZZY=              0.0000 XXYY=            -33.7286 XXZZ=            -30.8040 YYZZ=            -20.5057
 XXYZ=              0.0000 YYXZ=              0.0000 ZZXY=            -14.9217
 N-N= 1.172147555978D+02 E-N=-8.965702039995D+02  KE= 2.802461697828D+02
 Symmetry A'   KE= 2.662698892310D+02
 Symmetry A"   KE= 1.397628055180D+01
 No NMR shielding tensors so no spin-rotation constants.
 Leave Link  601 at Mon Feb 14 22:11:59 2022, MaxMem= 16106127360 cpu:               4.7 elap:               0.2
 (Enter /sw/contrib/gaussian/g16/B01/g16/l9999.exe)
 1\1\GINC-N2118\SP\RMP2-FC\Aug-CC-pVTZ\H1N1O3\CGAVINH\14-Feb-2022\0\\#p
  SP mp2/aug-cc-pvtz density=current\\title\\0,1\H\O,1,0.96897556\O,2,1
 .45491931,1,97.59494903\N,3,1.45878406,2,102.29752444,1,180.,0\O,4,1.1
 595175797,3,109.06955123,2,180.,0\\Version=ES64L-G16RevB.01\State=1-A'
 \HF=-279.5033958\MP2=-280.4465389\RMSD=3.497e-09\Dipole=-0.1293169,0.,
 -0.5317213\Quadrupole=-1.5119216,-0.7332523,2.2451739,0.,2.1115164,0.\
 PG=CS [SG(H1N1O3)]\\@


 KNOWLEDGE IS EXPERIMENT'S DAUGHTER.
 -- LEONARDO DA VINCI, IN "PENSIERI" CA. 1492
 Job cpu time:       0 days  0 hours  6 minutes 24.4 seconds.
 Elapsed time:       0 days  0 hours  0 minutes 17.9 seconds.
 File lengths (MBytes):  RWF=     22 Int=      0 D2E=      0 Chk=      8 Scr=      1
 Normal termination of Gaussian 16 at Mon Feb 14 22:11:59 2022.
