 Entering Gaussian System, Link 0=g16
 Input=hoono_a3_107p4950.gjf
 Output=hoono_a3_107p4950.log
 Initial command:
 /sw/contrib/gaussian/g16/B01/g16/l1.exe "/scr/Gau-5116.inp" -scrdir="/scr/"
 Entering Link 1 = /sw/contrib/gaussian/g16/B01/g16/l1.exe PID=      5117.
  
 Copyright (c) 1988-2017, Gaussian, Inc.  All Rights Reserved.
  
 This is part of the Gaussian(R) 16 program.  It is based on
 the Gaussian(R) 09 system (copyright 2009, Gaussian, Inc.),
 the Gaussian(R) 03 system (copyright 2003, Gaussian, Inc.),
 the Gaussian(R) 98 system (copyright 1998, Gaussian, Inc.),
 the Gaussian(R) 94 system (copyright 1995, Gaussian, Inc.),
 the Gaussian 92(TM) system (copyright 1992, Gaussian, Inc.),
 the Gaussian 90(TM) system (copyright 1990, Gaussian, Inc.),
 the Gaussian 88(TM) system (copyright 1988, Gaussian, Inc.),
 the Gaussian 86(TM) system (copyright 1986, Carnegie Mellon
 University), and the Gaussian 82(TM) system (copyright 1983,
 Carnegie Mellon University). Gaussian is a federally registered
 trademark of Gaussian, Inc.
  
 This software contains proprietary and confidential information,
 including trade secrets, belonging to Gaussian, Inc.
  
 This software is provided under written license and may be
 used, copied, transmitted, or stored only in accord with that
 written license.
  
 The following legend is applicable only to US Government
 contracts under FAR:
  
                    RESTRICTED RIGHTS LEGEND
  
 Use, reproduction and disclosure by the US Government is
 subject to restrictions as set forth in subparagraphs (a)
 and (c) of the Commercial Computer Software - Restricted
 Rights clause in FAR 52.227-19.
  
 Gaussian, Inc.
 340 Quinnipiac St., Bldg. 40, Wallingford CT 06492
  
  
 ---------------------------------------------------------------
 Warning -- This program may not be used in any manner that
 competes with the business of Gaussian, Inc. or will provide
 assistance to any competitor of Gaussian, Inc.  The licensee
 of this program is prohibited from giving any competitor of
 Gaussian, Inc. access to this program.  By using this program,
 the user acknowledges that Gaussian, Inc. is engaged in the
 business of creating and licensing software in the field of
 computational chemistry and represents and warrants to the
 licensee that it is not a competitor of Gaussian, Inc. and that
 it will not use this program in any manner prohibited above.
 ---------------------------------------------------------------
  

 Cite this work as:
 Gaussian 16, Revision B.01,
 M. J. Frisch, G. W. Trucks, H. B. Schlegel, G. E. Scuseria, 
 M. A. Robb, J. R. Cheeseman, G. Scalmani, V. Barone, 
 G. A. Petersson, H. Nakatsuji, X. Li, M. Caricato, A. V. Marenich, 
 J. Bloino, B. G. Janesko, R. Gomperts, B. Mennucci, H. P. Hratchian, 
 J. V. Ortiz, A. F. Izmaylov, J. L. Sonnenberg, D. Williams-Young, 
 F. Ding, F. Lipparini, F. Egidi, J. Goings, B. Peng, A. Petrone, 
 T. Henderson, D. Ranasinghe, V. G. Zakrzewski, J. Gao, N. Rega, 
 G. Zheng, W. Liang, M. Hada, M. Ehara, K. Toyota, R. Fukuda, 
 J. Hasegawa, M. Ishida, T. Nakajima, Y. Honda, O. Kitao, H. Nakai, 
 T. Vreven, K. Throssell, J. A. Montgomery, Jr., J. E. Peralta, 
 F. Ogliaro, M. J. Bearpark, J. J. Heyd, E. N. Brothers, K. N. Kudin, 
 V. N. Staroverov, T. A. Keith, R. Kobayashi, J. Normand, 
 K. Raghavachari, A. P. Rendell, J. C. Burant, S. S. Iyengar, 
 J. Tomasi, M. Cossi, J. M. Millam, M. Klene, C. Adamo, R. Cammi, 
 J. W. Ochterski, R. L. Martin, K. Morokuma, O. Farkas, 
 J. B. Foresman, and D. J. Fox, Gaussian, Inc., Wallingford CT, 2016.
 
 ******************************************
 Gaussian 16:  ES64L-G16RevB.01 20-Dec-2017
                14-Feb-2022 
 ******************************************
 %nproc=28
 Will use up to   28 processors via shared memory.
 %mem=120GB
 %chk=hoono_a3_107p4950.chk
 -------------------------------------
 #p SP mp2/aug-cc-pvtz density=current
 -------------------------------------
 1/30=1,38=1,172=1/1;
 2/12=2,17=6,18=5,40=1/2;
 3/5=16,6=1,7=10,11=9,25=1,30=1,71=1/1,2,3;
 4//1;
 5/5=2,38=5/2;
 8/6=4,10=1/1;
 9/15=1,16=-3/6;
 10/5=1,13=10/2;
 6/7=2,8=2,9=2,10=2,22=-1/1;
 99/5=1,9=1/99;
 Leave Link    1 at Mon Feb 14 22:13:32 2022, MaxMem= 16106127360 cpu:               3.2 elap:               0.1
 (Enter /sw/contrib/gaussian/g16/B01/g16/l101.exe)
 -----
 title
 -----
 Symbolic Z-matrix:
 Charge =  0 Multiplicity = 1
 H
 O                    1    r1
 O                    2    r2       1    a1
 N                    3    r3       2    a2       1    d1       0
 O                    4    r4       3    a3       2    d2       0
       Variables:
  r1                    0.96898                  
  r2                    1.45492                  
  r3                    1.45878                  
  r4                    1.17073                  
  a1                   97.59495                  
  a2                  102.29752                  
  a3                  107.49503                  
  d1                  180.                       
  d2                  180.                       
 
 ITRead=  0  0  0  0  0
 MicOpt= -1 -1 -1 -1 -1
 NAtoms=      5 NQM=        5 NQMF=       0 NMMI=      0 NMMIF=      0
                NMic=       0 NMicF=      0.
                    Isotopes and Nuclear Properties:
 (Nuclear quadrupole moments (NQMom) in fm**2, nuclear magnetic moments (NMagM)
  in nuclear magnetons)

  Atom         1           2           3           4           5
 IAtWgt=           1          16          16          14          16
 AtmWgt=   1.0078250  15.9949146  15.9949146  14.0030740  15.9949146
 NucSpn=           1           0           0           2           0
 AtZEff=  -0.0000000  -0.0000000  -0.0000000  -0.0000000  -0.0000000
 NQMom=    0.0000000   0.0000000   0.0000000   2.0440000   0.0000000
 NMagM=    2.7928460   0.0000000   0.0000000   0.4037610   0.0000000
 AtZNuc=   1.0000000   8.0000000   8.0000000   7.0000000   8.0000000
 Leave Link  101 at Mon Feb 14 22:13:32 2022, MaxMem= 16106127360 cpu:               2.8 elap:               0.1
 (Enter /sw/contrib/gaussian/g16/B01/g16/l202.exe)
                          Input orientation:                          
 ---------------------------------------------------------------------
 Center     Atomic      Atomic             Coordinates (Angstroms)
 Number     Number       Type             X           Y           Z
 ---------------------------------------------------------------------
      1          1           0        0.000000    0.000000    0.000000
      2          8           0        0.000000    0.000000    0.968976
      3          8           0        1.442156    0.000000    1.161271
      4          7           0        1.561752    0.000000    2.615144
      5          8           0        2.703421    0.000000    2.874367
 ---------------------------------------------------------------------
                    Distance matrix (angstroms):
                    1          2          3          4          5
     1  H    0.000000
     2  O    0.968976   0.000000
     3  O    1.851584   1.454919   0.000000
     4  N    3.045989   2.269127   1.458784   0.000000
     5  O    3.945944   3.307416   2.127320   1.170729   0.000000
 Stoichiometry    HNO3
 Framework group  CS[SG(HNO3)]
 Deg. of freedom     7
 Full point group                 CS      NOp   2
 Largest Abelian subgroup         CS      NOp   2
 Largest concise Abelian subgroup C1      NOp   1
                         Standard orientation:                         
 ---------------------------------------------------------------------
 Center     Atomic      Atomic             Coordinates (Angstroms)
 Number     Number       Type             X           Y           Z
 ---------------------------------------------------------------------
      1          1           0        1.547413    1.681841   -0.000000
      2          8           0        1.453978    0.717381   -0.000000
      3          8           0        0.000000    0.665044    0.000000
      4          7           0       -0.259231   -0.770522    0.000000
      5          8           0       -1.420577   -0.918449    0.000000
 ---------------------------------------------------------------------
 Rotational constants (GHZ):          54.5154447           5.0509063           4.6226166
 Leave Link  202 at Mon Feb 14 22:13:32 2022, MaxMem= 16106127360 cpu:               1.0 elap:               0.1
 (Enter /sw/contrib/gaussian/g16/B01/g16/l301.exe)
 Standard basis: Aug-CC-pVTZ (5D, 7F)
 Ernie: Thresh=  0.10000D-02 Tol=  0.10000D-05 Strict=F.
 Ernie:  12 primitive shells out of 131 were deleted.
 There are   166 symmetry adapted cartesian basis functions of A'  symmetry.
 There are    79 symmetry adapted cartesian basis functions of A"  symmetry.
 There are   136 symmetry adapted basis functions of A'  symmetry.
 There are    71 symmetry adapted basis functions of A"  symmetry.
   207 basis functions,   315 primitive gaussians,   245 cartesian basis functions
    16 alpha electrons       16 beta electrons
       nuclear repulsion energy       117.0682315834 Hartrees.
 IExCor=    0 DFT=F Ex=HF Corr=None ExCW=0 ScaHFX=  1.000000
 ScaDFX=  1.000000  1.000000  1.000000  1.000000 ScalE2=  1.000000  1.000000
 IRadAn=      5 IRanWt=     -1 IRanGd=            0 ICorTp=0 IEmpDi=  4
 NAtoms=    5 NActive=    5 NUniq=    5 SFac= 1.00D+00 NAtFMM=   60 NAOKFM=F Big=F
 Integral buffers will be    131072 words long.
 Raffenetti 1 integral format.
 Two-electron integral symmetry is turned on.
 Leave Link  301 at Mon Feb 14 22:13:32 2022, MaxMem= 16106127360 cpu:               2.0 elap:               0.1
 (Enter /sw/contrib/gaussian/g16/B01/g16/l302.exe)
 NPDir=0 NMtPBC=     1 NCelOv=     1 NCel=       1 NClECP=     1 NCelD=      1
         NCelK=      1 NCelE2=     1 NClLst=     1 CellRange=     0.0.
 One-electron integrals computed using PRISM.
 One-electron integral symmetry used in STVInt
 NBasis=   207 RedAO= T EigKep=  1.81D-04  NBF=   136    71
 NBsUse=   207 1.00D-06 EigRej= -1.00D+00 NBFU=   136    71
 Leave Link  302 at Mon Feb 14 22:13:32 2022, MaxMem= 16106127360 cpu:               4.5 elap:               0.2
 (Enter /sw/contrib/gaussian/g16/B01/g16/l303.exe)
 DipDrv:  MaxL=1.
 Leave Link  303 at Mon Feb 14 22:13:32 2022, MaxMem= 16106127360 cpu:               3.5 elap:               0.2
 (Enter /sw/contrib/gaussian/g16/B01/g16/l401.exe)
 ExpMin= 2.53D-02 ExpMax= 1.53D+04 ExpMxC= 5.22D+02 IAcc=3 IRadAn=         5 AccDes= 0.00D+00
 Harris functional with IExCor=  205 and IRadAn=       5 diagonalized for initial guess.
 HarFok:  IExCor=  205 AccDes= 0.00D+00 IRadAn=         5 IDoV= 1 UseB2=F ITyADJ=14
 ICtDFT=  3500011 ScaDFX=  1.000000  1.000000  1.000000  1.000000
 FoFCou: FMM=F IPFlag=           0 FMFlag=      100000 FMFlg1=           0
         NFxFlg=           0 DoJE=T BraDBF=F KetDBF=T FulRan=T
         wScrn=  0.000000 ICntrl=       500 IOpCl=  0 I1Cent=   200000004 NGrid=           0
         NMat0=    1 NMatS0=      1 NMatT0=    0 NMatD0=    1 NMtDS0=    0 NMtDT0=    0
 Petite list used in FoFCou.
 Harris En= -279.628569764641    
 JPrj=0 DoOrth=F DoCkMO=F.
 Initial guess orbital symmetries:
       Occupied  (A') (A') (A') (A') (A') (A') (A') (A') (A') (A')
                 (A") (A') (A') (A") (A") (A')
       Virtual   (A") (A') (A') (A') (A') (A') (A") (A') (A') (A')
                 (A") (A') (A") (A') (A') (A") (A') (A") (A') (A')
                 (A') (A') (A') (A') (A') (A") (A') (A") (A') (A')
                 (A") (A') (A") (A') (A') (A") (A') (A") (A') (A')
                 (A") (A') (A") (A') (A") (A') (A') (A') (A") (A")
                 (A') (A') (A') (A') (A") (A') (A") (A') (A") (A')
                 (A') (A') (A") (A') (A') (A") (A') (A") (A') (A')
                 (A") (A') (A') (A") (A") (A') (A') (A") (A') (A')
                 (A') (A") (A') (A") (A") (A') (A') (A") (A') (A')
                 (A') (A") (A') (A") (A') (A") (A") (A') (A') (A')
                 (A") (A') (A") (A') (A') (A') (A") (A') (A") (A')
                 (A") (A') (A') (A') (A") (A') (A') (A') (A") (A')
                 (A") (A') (A') (A") (A") (A') (A') (A") (A") (A')
                 (A') (A') (A') (A") (A") (A') (A") (A') (A') (A')
                 (A') (A") (A") (A') (A') (A") (A') (A') (A') (A')
                 (A") (A') (A') (A") (A') (A") (A') (A") (A') (A")
                 (A') (A") (A') (A") (A') (A") (A") (A") (A') (A')
                 (A") (A') (A") (A') (A") (A') (A") (A") (A') (A')
                 (A') (A') (A') (A') (A') (A') (A') (A') (A') (A')
                 (A')
 The electronic state of the initial guess is 1-A'.
 Leave Link  401 at Mon Feb 14 22:13:33 2022, MaxMem= 16106127360 cpu:               7.4 elap:               0.3
 (Enter /sw/contrib/gaussian/g16/B01/g16/l502.exe)
 Keep R1 ints in memory in symmetry-blocked form, NReq=348887737.
 FoFCou: FMM=F IPFlag=           0 FMFlag=           0 FMFlg1=           0
         NFxFlg=           0 DoJE=F BraDBF=F KetDBF=F FulRan=T
         wScrn=  0.000000 ICntrl=       600 IOpCl=  0 I1Cent=           0 NGrid=           0
         NMat0=    1 NMatS0=  21528 NMatT0=    0 NMatD0=    1 NMtDS0=    0 NMtDT0=    0
 Petite list used in FoFCou.
 Closed shell SCF:
 Using DIIS extrapolation, IDIIS=  1040.
 NGot= 16106127360 LenX= 15988850015 LenY= 15988789549
 Requested convergence on RMS density matrix=1.00D-08 within 128 cycles.
 Requested convergence on MAX density matrix=1.00D-06.
 Requested convergence on             energy=1.00D-06.
 No special actions if energy rises.

 Cycle   1  Pass 1  IDiag  1:
 E= -279.369805400763    
 DIIS: error= 2.54D-02 at cycle   1 NSaved=   1.
 NSaved= 1 IEnMin= 1 EnMin= -279.369805400763     IErMin= 1 ErrMin= 2.54D-02
 ErrMax= 2.54D-02  0.00D+00 EMaxC= 1.00D-01 BMatC= 4.39D-01 BMatP= 4.39D-01
 IDIUse=3 WtCom= 7.46D-01 WtEn= 2.54D-01
 Coeff-Com:  0.100D+01
 Coeff-En:   0.100D+01
 Coeff:      0.100D+01
 Gap=     0.511 Goal=   None    Shift=    0.000
 GapD=    0.511 DampG=2.000 DampE=0.500 DampFc=1.0000 IDamp=-1.
 RMSDP=1.63D-03 MaxDP=1.01D-01              OVMax= 1.14D-01

 Cycle   2  Pass 1  IDiag  1:
 E= -279.452143562311     Delta-E=       -0.082338161548 Rises=F Damp=F
 DIIS: error= 1.81D-02 at cycle   2 NSaved=   2.
 NSaved= 2 IEnMin= 2 EnMin= -279.452143562311     IErMin= 2 ErrMin= 1.81D-02
 ErrMax= 1.81D-02  0.00D+00 EMaxC= 1.00D-01 BMatC= 7.22D-02 BMatP= 4.39D-01
 IDIUse=3 WtCom= 8.19D-01 WtEn= 1.81D-01
 Coeff-Com:  0.196D+00 0.804D+00
 Coeff-En:   0.000D+00 0.100D+01
 Coeff:      0.160D+00 0.840D+00
 Gap=     0.533 Goal=   None    Shift=    0.000
 RMSDP=9.01D-04 MaxDP=3.76D-02 DE=-8.23D-02 OVMax= 6.97D-02

 Cycle   3  Pass 1  IDiag  1:
 E= -279.481601117829     Delta-E=       -0.029457555517 Rises=F Damp=F
 DIIS: error= 1.06D-02 at cycle   3 NSaved=   3.
 NSaved= 3 IEnMin= 3 EnMin= -279.481601117829     IErMin= 3 ErrMin= 1.06D-02
 ErrMax= 1.06D-02  0.00D+00 EMaxC= 1.00D-01 BMatC= 2.85D-02 BMatP= 7.22D-02
 IDIUse=3 WtCom= 8.94D-01 WtEn= 1.06D-01
 Coeff-Com: -0.330D-01 0.376D+00 0.657D+00
 Coeff-En:   0.000D+00 0.237D+00 0.763D+00
 Coeff:     -0.295D-01 0.362D+00 0.668D+00
 Gap=     0.512 Goal=   None    Shift=    0.000
 RMSDP=3.76D-04 MaxDP=1.57D-02 DE=-2.95D-02 OVMax= 3.80D-02

 Cycle   4  Pass 1  IDiag  1:
 E= -279.500512447920     Delta-E=       -0.018911330092 Rises=F Damp=F
 DIIS: error= 1.27D-03 at cycle   4 NSaved=   4.
 NSaved= 4 IEnMin= 4 EnMin= -279.500512447920     IErMin= 4 ErrMin= 1.27D-03
 ErrMax= 1.27D-03  0.00D+00 EMaxC= 1.00D-01 BMatC= 4.98D-04 BMatP= 2.85D-02
 IDIUse=3 WtCom= 9.87D-01 WtEn= 1.27D-02
 Coeff-Com: -0.117D-01 0.571D-01 0.160D+00 0.794D+00
 Coeff-En:   0.000D+00 0.000D+00 0.000D+00 0.100D+01
 Coeff:     -0.115D-01 0.564D-01 0.158D+00 0.797D+00
 Gap=     0.504 Goal=   None    Shift=    0.000
 RMSDP=8.99D-05 MaxDP=2.75D-03 DE=-1.89D-02 OVMax= 1.12D-02

 Cycle   5  Pass 1  IDiag  1:
 E= -279.501191198611     Delta-E=       -0.000678750691 Rises=F Damp=F
 DIIS: error= 7.31D-04 at cycle   5 NSaved=   5.
 NSaved= 5 IEnMin= 5 EnMin= -279.501191198611     IErMin= 5 ErrMin= 7.31D-04
 ErrMax= 7.31D-04  0.00D+00 EMaxC= 1.00D-01 BMatC= 8.69D-05 BMatP= 4.98D-04
 IDIUse=3 WtCom= 9.93D-01 WtEn= 7.31D-03
 Coeff-Com:  0.619D-02-0.727D-01-0.119D+00 0.161D-01 0.117D+01
 Coeff-En:   0.000D+00 0.000D+00 0.000D+00 0.000D+00 0.100D+01
 Coeff:      0.614D-02-0.722D-01-0.118D+00 0.160D-01 0.117D+01
 Gap=     0.504 Goal=   None    Shift=    0.000
 RMSDP=7.67D-05 MaxDP=2.12D-03 DE=-6.79D-04 OVMax= 1.12D-02

 Cycle   6  Pass 1  IDiag  1:
 E= -279.501507595816     Delta-E=       -0.000316397205 Rises=F Damp=F
 DIIS: error= 2.74D-04 at cycle   6 NSaved=   6.
 NSaved= 6 IEnMin= 6 EnMin= -279.501507595816     IErMin= 6 ErrMin= 2.74D-04
 ErrMax= 2.74D-04  0.00D+00 EMaxC= 1.00D-01 BMatC= 1.66D-05 BMatP= 8.69D-05
 IDIUse=3 WtCom= 9.97D-01 WtEn= 2.74D-03
 Coeff-Com:  0.544D-03 0.218D-02 0.556D-02-0.129D+00-0.237D+00 0.136D+01
 Coeff-En:   0.000D+00 0.000D+00 0.000D+00 0.000D+00 0.000D+00 0.100D+01
 Coeff:      0.543D-03 0.218D-02 0.555D-02-0.129D+00-0.237D+00 0.136D+01
 Gap=     0.504 Goal=   None    Shift=    0.000
 RMSDP=4.51D-05 MaxDP=1.23D-03 DE=-3.16D-04 OVMax= 5.57D-03

 Cycle   7  Pass 1  IDiag  1:
 E= -279.501579839543     Delta-E=       -0.000072243727 Rises=F Damp=F
 DIIS: error= 1.22D-04 at cycle   7 NSaved=   7.
 NSaved= 7 IEnMin= 7 EnMin= -279.501579839543     IErMin= 7 ErrMin= 1.22D-04
 ErrMax= 1.22D-04  0.00D+00 EMaxC= 1.00D-01 BMatC= 4.37D-06 BMatP= 1.66D-05
 IDIUse=3 WtCom= 9.99D-01 WtEn= 1.22D-03
 Coeff-Com: -0.940D-03 0.134D-01 0.265D-01-0.228D-01-0.283D+00 0.379D+00
 Coeff-Com:  0.888D+00
 Coeff-En:   0.000D+00 0.000D+00 0.000D+00 0.000D+00 0.000D+00 0.000D+00
 Coeff-En:   0.100D+01
 Coeff:     -0.939D-03 0.134D-01 0.264D-01-0.228D-01-0.283D+00 0.379D+00
 Coeff:      0.888D+00
 Gap=     0.504 Goal=   None    Shift=    0.000
 RMSDP=1.31D-05 MaxDP=3.70D-04 DE=-7.22D-05 OVMax= 1.54D-03

 Cycle   8  Pass 1  IDiag  1:
 E= -279.501588503859     Delta-E=       -0.000008664316 Rises=F Damp=F
 DIIS: error= 5.58D-05 at cycle   8 NSaved=   8.
 NSaved= 8 IEnMin= 8 EnMin= -279.501588503859     IErMin= 8 ErrMin= 5.58D-05
 ErrMax= 5.58D-05  0.00D+00 EMaxC= 1.00D-01 BMatC= 6.06D-07 BMatP= 4.37D-06
 IDIUse=1 WtCom= 1.00D+00 WtEn= 0.00D+00
 Coeff-Com: -0.447D-03 0.340D-02 0.760D-02 0.271D-01-0.401D-01-0.199D+00
 Coeff-Com:  0.185D+00 0.102D+01
 Coeff:     -0.447D-03 0.340D-02 0.760D-02 0.271D-01-0.401D-01-0.199D+00
 Coeff:      0.185D+00 0.102D+01
 Gap=     0.504 Goal=   None    Shift=    0.000
 RMSDP=6.78D-06 MaxDP=2.02D-04 DE=-8.66D-06 OVMax= 7.27D-04

 Cycle   9  Pass 1  IDiag  1:
 E= -279.501590242343     Delta-E=       -0.000001738484 Rises=F Damp=F
 DIIS: error= 1.63D-05 at cycle   9 NSaved=   9.
 NSaved= 9 IEnMin= 9 EnMin= -279.501590242343     IErMin= 9 ErrMin= 1.63D-05
 ErrMax= 1.63D-05  0.00D+00 EMaxC= 1.00D-01 BMatC= 7.00D-08 BMatP= 6.06D-07
 IDIUse=1 WtCom= 1.00D+00 WtEn= 0.00D+00
 Coeff-Com:  0.125D-03-0.173D-02-0.312D-02-0.215D-02 0.344D-01 0.246D-03
 Coeff-Com: -0.172D+00-0.980D-01 0.124D+01
 Coeff:      0.125D-03-0.173D-02-0.312D-02-0.215D-02 0.344D-01 0.246D-03
 Coeff:     -0.172D+00-0.980D-01 0.124D+01
 Gap=     0.504 Goal=   None    Shift=    0.000
 RMSDP=1.93D-06 MaxDP=6.68D-05 DE=-1.74D-06 OVMax= 1.75D-04

 Cycle  10  Pass 1  IDiag  1:
 E= -279.501590402267     Delta-E=       -0.000000159924 Rises=F Damp=F
 DIIS: error= 4.18D-06 at cycle  10 NSaved=  10.
 NSaved=10 IEnMin=10 EnMin= -279.501590402267     IErMin=10 ErrMin= 4.18D-06
 ErrMax= 4.18D-06  0.00D+00 EMaxC= 1.00D-01 BMatC= 5.46D-09 BMatP= 7.00D-08
 IDIUse=1 WtCom= 1.00D+00 WtEn= 0.00D+00
 Coeff-Com:  0.302D-04-0.234D-03-0.312D-03-0.266D-02 0.151D-02 0.196D-01
 Coeff-Com: -0.135D-01-0.727D-01-0.812D-01 0.115D+01
 Coeff:      0.302D-04-0.234D-03-0.312D-03-0.266D-02 0.151D-02 0.196D-01
 Coeff:     -0.135D-01-0.727D-01-0.812D-01 0.115D+01
 Gap=     0.504 Goal=   None    Shift=    0.000
 RMSDP=4.94D-07 MaxDP=2.09D-05 DE=-1.60D-07 OVMax= 4.10D-05

 Cycle  11  Pass 1  IDiag  1:
 E= -279.501590414543     Delta-E=       -0.000000012276 Rises=F Damp=F
 DIIS: error= 2.00D-06 at cycle  11 NSaved=  11.
 NSaved=11 IEnMin=11 EnMin= -279.501590414543     IErMin=11 ErrMin= 2.00D-06
 ErrMax= 2.00D-06  0.00D+00 EMaxC= 1.00D-01 BMatC= 6.50D-10 BMatP= 5.46D-09
 IDIUse=1 WtCom= 1.00D+00 WtEn= 0.00D+00
 Coeff-Com: -0.212D-04 0.243D-03 0.489D-03 0.522D-03-0.427D-02-0.353D-02
 Coeff-Com:  0.218D-01 0.297D-01-0.138D+00-0.175D+00 0.127D+01
 Coeff:     -0.212D-04 0.243D-03 0.489D-03 0.522D-03-0.427D-02-0.353D-02
 Coeff:      0.218D-01 0.297D-01-0.138D+00-0.175D+00 0.127D+01
 Gap=     0.504 Goal=   None    Shift=    0.000
 RMSDP=1.74D-07 MaxDP=6.24D-06 DE=-1.23D-08 OVMax= 1.74D-05

 Cycle  12  Pass 1  IDiag  1:
 E= -279.501590416316     Delta-E=       -0.000000001773 Rises=F Damp=F
 DIIS: error= 5.73D-07 at cycle  12 NSaved=  12.
 NSaved=12 IEnMin=12 EnMin= -279.501590416316     IErMin=12 ErrMin= 5.73D-07
 ErrMax= 5.73D-07  0.00D+00 EMaxC= 1.00D-01 BMatC= 7.12D-11 BMatP= 6.50D-10
 IDIUse=1 WtCom= 1.00D+00 WtEn= 0.00D+00
 Coeff-Com:  0.126D-05-0.291D-04-0.634D-04 0.180D-03 0.108D-02-0.234D-02
 Coeff-Com: -0.407D-02 0.563D-02 0.413D-01-0.116D+00-0.276D+00 0.135D+01
 Coeff:      0.126D-05-0.291D-04-0.634D-04 0.180D-03 0.108D-02-0.234D-02
 Coeff:     -0.407D-02 0.563D-02 0.413D-01-0.116D+00-0.276D+00 0.135D+01
 Gap=     0.504 Goal=   None    Shift=    0.000
 RMSDP=7.11D-08 MaxDP=2.70D-06 DE=-1.77D-09 OVMax= 6.76D-06

 Cycle  13  Pass 1  IDiag  1:
 E= -279.501590416544     Delta-E=       -0.000000000228 Rises=F Damp=F
 DIIS: error= 1.64D-07 at cycle  13 NSaved=  13.
 NSaved=13 IEnMin=13 EnMin= -279.501590416544     IErMin=13 ErrMin= 1.64D-07
 ErrMax= 1.64D-07  0.00D+00 EMaxC= 1.00D-01 BMatC= 3.94D-12 BMatP= 7.12D-11
 IDIUse=1 WtCom= 1.00D+00 WtEn= 0.00D+00
 Coeff-Com:  0.128D-05-0.140D-04-0.228D-04-0.872D-04 0.126D-03 0.753D-03
 Coeff-Com: -0.909D-03-0.319D-02 0.782D-03 0.410D-01-0.374D-01-0.320D+00
 Coeff-Com:  0.132D+01
 Coeff:      0.128D-05-0.140D-04-0.228D-04-0.872D-04 0.126D-03 0.753D-03
 Coeff:     -0.909D-03-0.319D-02 0.782D-03 0.410D-01-0.374D-01-0.320D+00
 Coeff:      0.132D+01
 Gap=     0.504 Goal=   None    Shift=    0.000
 RMSDP=1.89D-08 MaxDP=5.58D-07 DE=-2.28D-10 OVMax= 1.56D-06

 Cycle  14  Pass 1  IDiag  1:
 E= -279.501590416558     Delta-E=       -0.000000000013 Rises=F Damp=F
 DIIS: error= 2.49D-08 at cycle  14 NSaved=  14.
 NSaved=14 IEnMin=14 EnMin= -279.501590416558     IErMin=14 ErrMin= 2.49D-08
 ErrMax= 2.49D-08  0.00D+00 EMaxC= 1.00D-01 BMatC= 1.90D-13 BMatP= 3.94D-12
 IDIUse=1 WtCom= 1.00D+00 WtEn= 0.00D+00
 Coeff-Com: -0.186D-06 0.305D-05 0.555D-05 0.428D-05-0.817D-04 0.479D-04
 Coeff-Com:  0.284D-03 0.206D-03-0.244D-02 0.162D-02 0.169D-01-0.264D-01
 Coeff-Com: -0.197D+00 0.121D+01
 Coeff:     -0.186D-06 0.305D-05 0.555D-05 0.428D-05-0.817D-04 0.479D-04
 Coeff:      0.284D-03 0.206D-03-0.244D-02 0.162D-02 0.169D-01-0.264D-01
 Coeff:     -0.197D+00 0.121D+01
 Gap=     0.504 Goal=   None    Shift=    0.000
 RMSDP=3.73D-09 MaxDP=8.88D-08 DE=-1.32D-11 OVMax= 3.35D-07

 SCF Done:  E(RHF) =  -279.501590417     A.U. after   14 cycles
            NFock= 14  Conv=0.37D-08     -V/T= 2.0023
 KE= 2.788566462703D+02 PE=-8.954819720719D+02 EE= 2.200555038016D+02
 Leave Link  502 at Mon Feb 14 22:13:36 2022, MaxMem= 16106127360 cpu:              55.4 elap:               3.6
 (Enter /sw/contrib/gaussian/g16/B01/g16/l801.exe)
 ExpMin= 2.53D-02 ExpMax= 1.53D+04 ExpMxC= 5.22D+02 IAcc=3 IRadAn=         5 AccDes= 0.00D+00
 HarFok:  IExCor=  205 AccDes= 0.00D+00 IRadAn=         5 IDoV=-2 UseB2=F ITyADJ=14
 ICtDFT= 12500011 ScaDFX=  1.000000  1.000000  1.000000  1.000000
 Largest valence mixing into a core orbital is  2.08D-04
 Largest core mixing into a valence orbital is  3.65D-05
 Range of M.O.s used for correlation:     5   207
 NBasis=   207 NAE=    16 NBE=    16 NFC=     4 NFV=     0
 NROrb=    203 NOA=    12 NOB=    12 NVA=   191 NVB=   191

 **** Warning!!: The largest alpha MO coefficient is  0.17532653D+02

 Leave Link  801 at Mon Feb 14 22:13:36 2022, MaxMem= 16106127360 cpu:               2.2 elap:               0.1
 (Enter /sw/contrib/gaussian/g16/B01/g16/l906.exe)
 Frozen-core derivative calculation, NFC=   4 NFV=   0.
 FulOut=F Deriv=T AODrv=F NAtomX=     5
   MMem=          76  MDisk=          12 MDiskD=          12
  W3Min=      811440 MinDsk=     1524655 NBas6D=         245
 NBas2D=       30762    NTT=       30135    LW2=     3500000
    MDV= 16105579871 MDiskM=      328644 NBas2p=       30466
 Fully in-core method, ICMem=   960157634.
 IMap=   1   2   3   4   5   6   7   8   9  10  11  12  13  14  15  16
 JobTyp=1 Pass  1 fully in-core, NPsUse= 28.
 Compute canonical integrals.
 FoFCou: FMM=F IPFlag=           0 FMFlag=           0 FMFlg1=           0
         NFxFlg=           0 DoJE=F BraDBF=F KetDBF=F FulRan=T
         wScrn=  0.000000 ICntrl=       600 IOpCl=  1 I1Cent=           0 NGrid=           0
         NMat0=    1 NMatS0=  30762 NMatT0=    0 NMatD0=    1 NMtDS0=    0 NMtDT0=    0
 Symmetry not used in FoFCou.
 Spin components of T(2) and E(2):
     alpha-alpha T2 =       0.3398876619D-01 E2=     -0.1223792060D+00
     alpha-beta  T2 =       0.1867770621D+00 E2=     -0.7002022598D+00
     beta-beta   T2 =       0.3398876619D-01 E2=     -0.1223792060D+00
 The integrals were generated   1 times.
 ANorm=    0.1120158290D+01
 E2 =    -0.9449606718D+00 EUMP2 =    -0.28044655108838D+03
 Leave Link  906 at Mon Feb 14 22:13:45 2022, MaxMem= 16106127360 cpu:             247.6 elap:               8.9
 (Enter /sw/contrib/gaussian/g16/B01/g16/l1002.exe)
 Minotr:  Closed shell wavefunction.
          Computing MP2/KS-MP2 derivatives.
          Using Z-Vector for PSCF gradient.
          Skipping F1 and S1 gradient terms here.
          Frozen-core window.
          Direct CPHF calculation.
          Differentiating once with respect to electric field.
                with respect to dipole field.
          Electric field/nuclear overlap derivatives assumed to be zero.
          Using symmetry in CPHF.
          Requested convergence is 1.0D-10 RMS, and 1.0D-09 maximum.
          NewPWx=F KeepS1=T KeepF1=T KeepIn=T MapXYZ=F SortEE=F KeepMc=T.
 Keep R1 ints in memory in symmetry-blocked form, NReq=348888868.
 FoFCou: FMM=F IPFlag=           0 FMFlag=           0 FMFlg1=           0
         NFxFlg=           0 DoJE=F BraDBF=F KetDBF=F FulRan=T
         wScrn=  0.000000 ICntrl=       600 IOpCl=  0 I1Cent=           0 NGrid=           0
         NMat0=    1 NMatS0=  21528 NMatT0=    0 NMatD0=    1 NMtDS0=    0 NMtDT0=    0
 Petite list used in FoFCou.
          MDV=   16106127360 using IRadAn=       5.
          Solving linear equations separately, MaxMat=       0.
          There are     1 degrees of freedom in the 1st order CPHF.  IDoFFX=0 NUNeed=     1.
 LinEq1:  Iter=  0 NonCon=     1 RMS=5.93D-03 Max=1.31D-01 NDo=     1
 AX will form     1 AO Fock derivatives at one time.
 LinEq1:  Iter=  1 NonCon=     1 RMS=1.89D-03 Max=3.81D-02 NDo=     1
 LinEq1:  Iter=  2 NonCon=     1 RMS=8.63D-04 Max=1.40D-02 NDo=     1
 LinEq1:  Iter=  3 NonCon=     1 RMS=3.85D-04 Max=7.79D-03 NDo=     1
 LinEq1:  Iter=  4 NonCon=     1 RMS=1.18D-04 Max=1.84D-03 NDo=     1
 LinEq1:  Iter=  5 NonCon=     1 RMS=4.34D-05 Max=6.87D-04 NDo=     1
 LinEq1:  Iter=  6 NonCon=     1 RMS=1.94D-05 Max=2.30D-04 NDo=     1
 LinEq1:  Iter=  7 NonCon=     1 RMS=7.86D-06 Max=1.59D-04 NDo=     1
 LinEq1:  Iter=  8 NonCon=     1 RMS=3.40D-06 Max=3.38D-05 NDo=     1
 LinEq1:  Iter=  9 NonCon=     1 RMS=9.41D-07 Max=1.31D-05 NDo=     1
 LinEq1:  Iter= 10 NonCon=     1 RMS=1.85D-07 Max=2.02D-06 NDo=     1
 LinEq1:  Iter= 11 NonCon=     1 RMS=3.48D-08 Max=3.65D-07 NDo=     1
 LinEq1:  Iter= 12 NonCon=     1 RMS=8.35D-09 Max=1.35D-07 NDo=     1
 LinEq1:  Iter= 13 NonCon=     1 RMS=1.50D-09 Max=2.60D-08 NDo=     1
 LinEq1:  Iter= 14 NonCon=     1 RMS=2.71D-10 Max=3.81D-09 NDo=     1
 LinEq1:  Iter= 15 NonCon=     0 RMS=4.98D-11 Max=5.47D-10 NDo=     1
 Linear equations converged to 1.000D-10 1.000D-09 after    15 iterations.
 End of Minotr F.D. properties file   721 does not exist.
 End of Minotr F.D. properties file   722 does not exist.
 End of Minotr F.D. properties file   788 does not exist.
 Leave Link 1002 at Mon Feb 14 22:13:49 2022, MaxMem= 16106127360 cpu:              54.4 elap:               4.0
 (Enter /sw/contrib/gaussian/g16/B01/g16/l601.exe)
 Copying SCF densities to generalized density rwf, IOpCl= 0 IROHF=0.

 **********************************************************************

            Population analysis using the MP2 Density.

 **********************************************************************

 Orbital symmetries:
       Occupied  (A') (A') (A') (A') (A') (A') (A') (A') (A') (A')
                 (A") (A') (A") (A') (A") (A')
       Virtual   (A') (A") (A') (A') (A') (A") (A') (A') (A") (A')
                 (A") (A') (A') (A') (A") (A') (A') (A") (A') (A')
                 (A') (A') (A') (A') (A') (A") (A') (A") (A') (A')
                 (A") (A') (A") (A') (A') (A") (A') (A") (A') (A')
                 (A") (A') (A") (A') (A') (A") (A') (A') (A") (A')
                 (A") (A') (A') (A') (A") (A') (A") (A') (A") (A')
                 (A') (A') (A") (A') (A') (A") (A') (A") (A') (A')
                 (A") (A') (A') (A") (A") (A') (A') (A") (A') (A')
                 (A') (A") (A') (A") (A") (A') (A') (A") (A') (A')
                 (A") (A') (A') (A") (A') (A") (A') (A") (A') (A')
                 (A") (A') (A") (A') (A') (A') (A") (A') (A") (A')
                 (A") (A') (A') (A') (A") (A') (A') (A') (A") (A')
                 (A") (A') (A") (A') (A') (A") (A") (A') (A") (A')
                 (A') (A') (A') (A") (A") (A") (A') (A') (A') (A')
                 (A") (A') (A") (A') (A') (A") (A') (A') (A') (A')
                 (A") (A') (A') (A") (A') (A") (A') (A") (A') (A")
                 (A') (A") (A') (A") (A') (A") (A") (A') (A") (A')
                 (A") (A') (A") (A') (A") (A') (A") (A") (A') (A')
                 (A') (A') (A') (A') (A') (A') (A') (A') (A') (A')
                 (A')
 The electronic state is 1-A'.
 Alpha  occ. eigenvalues --  -20.69022 -20.68374 -20.65895 -15.81337  -1.62537
 Alpha  occ. eigenvalues --   -1.49456  -1.25311  -0.94849  -0.77190  -0.75973
 Alpha  occ. eigenvalues --   -0.71211  -0.67895  -0.61982  -0.58802  -0.48447
 Alpha  occ. eigenvalues --   -0.47435
 Alpha virt. eigenvalues --    0.02975   0.07100   0.08625   0.10168   0.13386
 Alpha virt. eigenvalues --    0.13386   0.14416   0.15442   0.17843   0.19410
 Alpha virt. eigenvalues --    0.19987   0.20664   0.22078   0.23699   0.23760
 Alpha virt. eigenvalues --    0.26717   0.29213   0.30342   0.31019   0.34390
 Alpha virt. eigenvalues --    0.34954   0.38773   0.42266   0.43221   0.52806
 Alpha virt. eigenvalues --    0.52876   0.55788   0.58009   0.62508   0.64148
 Alpha virt. eigenvalues --    0.67486   0.68470   0.70417   0.71180   0.72339
 Alpha virt. eigenvalues --    0.72913   0.74315   0.79283   0.79433   0.81124
 Alpha virt. eigenvalues --    0.81333   0.83132   0.86815   0.90932   0.92248
 Alpha virt. eigenvalues --    0.92965   0.95635   0.97447   0.98502   1.01707
 Alpha virt. eigenvalues --    1.05193   1.05502   1.08322   1.11724   1.14214
 Alpha virt. eigenvalues --    1.19052   1.21779   1.23349   1.33963   1.35293
 Alpha virt. eigenvalues --    1.38846   1.45596   1.48754   1.50722   1.53768
 Alpha virt. eigenvalues --    1.56846   1.57943   1.61237   1.66472   1.67189
 Alpha virt. eigenvalues --    1.70162   1.79191   1.82956   1.83523   1.88148
 Alpha virt. eigenvalues --    1.90735   1.95681   1.99389   2.00237   2.08150
 Alpha virt. eigenvalues --    2.12343   2.13018   2.15192   2.22681   2.26586
 Alpha virt. eigenvalues --    2.26848   2.28950   2.31472   2.34793   2.38640
 Alpha virt. eigenvalues --    2.42745   2.42819   2.45050   2.45808   2.47921
 Alpha virt. eigenvalues --    2.50057   2.58840   2.59950   2.62203   2.62482
 Alpha virt. eigenvalues --    2.63408   2.67262   2.75213   2.81384   2.84812
 Alpha virt. eigenvalues --    2.89335   2.89484   2.94323   2.95143   3.02754
 Alpha virt. eigenvalues --    3.06322   3.12802   3.20533   3.22338   3.31994
 Alpha virt. eigenvalues --    3.33673   3.52849   3.63701   3.83850   3.84402
 Alpha virt. eigenvalues --    4.14982   4.16906   4.18511   4.25820   4.34784
 Alpha virt. eigenvalues --    4.39362   4.46343   4.52086   4.65523   4.71253
 Alpha virt. eigenvalues --    4.80106   4.82999   4.83208   4.89665   5.02510
 Alpha virt. eigenvalues --    5.07607   5.10790   5.14653   5.17236   5.24489
 Alpha virt. eigenvalues --    5.27491   5.30336   5.33124   5.35114   5.60177
 Alpha virt. eigenvalues --    5.67341   5.78786   5.82940   5.95648   6.16985
 Alpha virt. eigenvalues --    6.31152   6.33547   6.39500   6.49695   6.50988
 Alpha virt. eigenvalues --    6.61562   6.66817   6.70697   6.75796   6.76552
 Alpha virt. eigenvalues --    6.83703   6.89172   7.01870   7.05703   7.05985
 Alpha virt. eigenvalues --    7.09243   7.12284   7.15221   7.18276   7.22660
 Alpha virt. eigenvalues --    7.24288   7.30798   7.32558   7.34761   7.39864
 Alpha virt. eigenvalues --    7.43107   7.48258   7.60989   7.61061   7.63274
 Alpha virt. eigenvalues --    7.67054   7.80157   7.87853   8.09468   8.31576
 Alpha virt. eigenvalues --    8.40918   8.54311  13.40318  14.37543  15.17105
 Alpha virt. eigenvalues --   16.16027
          Condensed to atoms (all electrons):
               1          2          3          4          5
     1  H    0.589701   0.127873   0.020330   0.012540  -0.000600
     2  O    0.127873   8.326737  -0.176425  -0.089065   0.015922
     3  O    0.020330  -0.176425   8.469895  -0.123942  -0.044999
     4  N    0.012540  -0.089065  -0.123942   6.960031  -0.053135
     5  O   -0.000600   0.015922  -0.044999  -0.053135   8.276636
 Mulliken charges:
               1
     1  H    0.250156
     2  O   -0.205042
     3  O   -0.144859
     4  N    0.293571
     5  O   -0.193825
 Sum of Mulliken charges =  -0.00000
 Mulliken charges with hydrogens summed into heavy atoms:
               1
     2  O    0.045114
     3  O   -0.144859
     4  N    0.293571
     5  O   -0.193825
 Electronic spatial extent (au):  <R**2>=            251.5912
 Charge=              0.0000 electrons
 Dipole moment (field-independent basis, Debye):
    X=              0.5119    Y=              1.3394    Z=             -0.0000  Tot=              1.4339
 Quadrupole moment (field-independent basis, Debye-Ang):
   XX=            -22.5194   YY=            -18.6059   ZZ=            -22.0025
   XY=              3.2171   XZ=              0.0000   YZ=              0.0000
 Traceless Quadrupole moment (field-independent basis, Debye-Ang):
   XX=             -1.4768   YY=              2.4367   ZZ=             -0.9599
   XY=              3.2171   XZ=              0.0000   YZ=              0.0000
 Octapole moment (field-independent basis, Debye-Ang**2):
  XXX=              2.7839  YYY=             11.2607  ZZZ=              0.0000  XYY=              7.8597
  XXY=              6.5631  XXZ=             -0.0000  XZZ=             -1.5889  YZZ=             -0.8460
  YYZ=             -0.0000  XYZ=             -0.0000
 Hexadecapole moment (field-independent basis, Debye-Ang**3):
 XXXX=           -158.6910 YYYY=            -88.3933 ZZZZ=            -18.2184 XXXY=            -36.3156
 XXXZ=              0.0000 YYYX=            -30.3662 YYYZ=              0.0000 ZZZX=              0.0000
 ZZZY=              0.0000 XXYY=            -33.9497 XXZZ=            -30.8878 YYZZ=            -20.4169
 XXYZ=              0.0000 YYXZ=              0.0000 ZZXY=            -14.8818
 N-N= 1.170682315834D+02 E-N=-8.962634609626D+02  KE= 2.802083520219D+02
 Symmetry A'   KE= 2.662328277738D+02
 Symmetry A"   KE= 1.397552424806D+01
 No NMR shielding tensors so no spin-rotation constants.
 Leave Link  601 at Mon Feb 14 22:13:50 2022, MaxMem= 16106127360 cpu:               4.5 elap:               0.2
 (Enter /sw/contrib/gaussian/g16/B01/g16/l9999.exe)
 1\1\GINC-N2118\SP\RMP2-FC\Aug-CC-pVTZ\H1N1O3\CGAVINH\14-Feb-2022\0\\#p
  SP mp2/aug-cc-pvtz density=current\\title\\0,1\H\O,1,0.96897556\O,2,1
 .45491931,1,97.59494903\N,3,1.45878406,2,102.29752444,1,180.,0\O,4,1.1
 7072885,3,107.49503494,2,180.,0\\Version=ES64L-G16RevB.01\State=1-A'\H
 F=-279.5015904\MP2=-280.4465511\RMSD=3.726e-09\Dipole=-0.1496579,0.,-0
 .5439291\Quadrupole=-1.5300181,-0.7136619,2.24368,0.,2.0680814,0.\PG=C
 S [SG(H1N1O3)]\\@


 ONE BIG VICE IN A MAN IS APT TO KEEP OUT MANY SMALLER ONES.

                           -- BRET HARTE
 Job cpu time:       0 days  0 hours  6 minutes 29.6 seconds.
 Elapsed time:       0 days  0 hours  0 minutes 18.0 seconds.
 File lengths (MBytes):  RWF=     22 Int=      0 D2E=      0 Chk=      8 Scr=      1
 Normal termination of Gaussian 16 at Mon Feb 14 22:13:50 2022.
