title                                                                   
SP        RMP2-FC                                                     Aug-CC-pVTZ         
Number of atoms                            I                5
Info1-9                                    I   N=           9
          33          24           0           0           0         110
           1           2           1
Full Title                                 C   N=           1
title       
Route                                      C   N=           4
#p SP mp2/aug-cc-pvtz density=current           
Charge                                     I                0
Multiplicity                               I                1
Number of electrons                        I               32
Number of alpha electrons                  I               16
Number of beta electrons                   I               16
Number of basis functions                  I              207
Number of independent functions            I              207
Number of point charges in /Mol/           I                0
Number of translation vectors              I                0
Atomic numbers                             I   N=           5
           1           8           8           7           8
Nuclear charges                            R   N=           5
  1.00000000E+00  8.00000000E+00  8.00000000E+00  7.00000000E+00  8.00000000E+00
Current cartesian coordinates              R   N=          15
  3.00544188E+00  3.17425866E+00  1.03637944E-31  2.74794932E+00  1.36135517E+00
  7.49145086E-32 -1.39601049E-16  1.27208279E+00  5.05549742E-32 -4.99379696E-01
 -1.43901067E+00 -6.08057846E-32 -2.68667232E+00 -1.77108596E+00 -9.10670728E-32
Number of symbols in /Mol/                 I                0
Force Field                                I                0
Atom Types                                 C   N=           5
                                                            
Int Atom Types                             I   N=           5
           0           0           0           0           0
MM charges                                 R   N=           5
  0.00000000E+00  0.00000000E+00  0.00000000E+00  0.00000000E+00  0.00000000E+00
Integer atomic weights                     I   N=           5
           1          16          16          14          16
Real atomic weights                        R   N=           5
  1.00782504E+00  1.59949146E+01  1.59949146E+01  1.40030740E+01  1.59949146E+01
Atom fragment info                         I   N=           5
           0           0           0           0           0
Atom residue num                           I   N=           5
           0           0           0           0           0
Nuclear spins                              I   N=           5
           1           0           0           2           0
Nuclear ZEff                               R   N=           5
 -1.00000000E+00 -5.60000000E+00 -5.60000000E+00 -4.55000000E+00 -5.60000000E+00
Nuclear ZNuc                               R   N=           5
  1.00000000E+00  8.00000000E+00  8.00000000E+00  7.00000000E+00  8.00000000E+00
Nuclear QMom                               R   N=           5
  0.00000000E+00  0.00000000E+00  0.00000000E+00  2.04400000E+00  0.00000000E+00
Nuclear GFac                               R   N=           5
  2.79284600E+00  0.00000000E+00  0.00000000E+00  4.03761000E-01  0.00000000E+00
MicOpt                                     I   N=           5
          -1          -1          -1          -1          -1
Number of residues                         I                0
Number of secondary structures             I                0
SymInf integers                            I   N=          26
           1           2           1           1           1           1
           1          -1           0           0           0           0
           0           0           0           0           0           0
           0           0           0           0           0           0
           0           0
RotTr to input orientation                 R   N=          12
 -9.90063371E-01 -9.86474401E-17 -1.40621909E-01  1.40621909E-01 -7.25691421E-17
 -9.90063371E-01  8.74624058E-17 -1.00000000E+00  8.57200408E-17  2.52920760E+00
  0.00000000E+00  3.56534820E+00
Number of contracted shells                I               65
Number of primitive shells                 I              119
Pure/Cartesian d shells                    I                0
Pure/Cartesian f shells                    I                0
Highest angular momentum                   I                3
Largest degree of contraction              I                7
Shell types                                I   N=          65
           0           0           0           0           1           1
           1          -2          -2           0           0           0
           0           0           1           1           1           1
          -2          -2          -2          -3          -3           0
           0           0           0           0           1           1
           1           1          -2          -2          -2          -3
          -3           0           0           0           0           0
           1           1           1           1          -2          -2
          -2          -3          -3           0           0           0
           0           0           1           1           1           1
          -2          -2          -2          -3          -3
Number of primitives per shell             I   N=          65
           3           1           1           1           1           1
           1           1           1           7           6           1
           1           1           3           1           1           1
           1           1           1           1           1           7
           6           1           1           1           3           1
           1           1           1           1           1           1
           1           7           6           1           1           1
           3           1           1           1           1           1
           1           1           1           7           6           1
           1           1           3           1           1           1
           1           1           1           1           1
Shell to atom map                          I   N=          65
           1           1           1           1           1           1
           1           1           1           2           2           2
           2           2           2           2           2           2
           2           2           2           2           2           3
           3           3           3           3           3           3
           3           3           3           3           3           3
           3           4           4           4           4           4
           4           4           4           4           4           4
           4           4           4           5           5           5
           5           5           5           5           5           5
           5           5           5           5           5
Primitive exponents                        R   N=         119
  3.38700000E+01  5.09500000E+00  1.15900000E+00  3.25800000E-01  1.02700000E-01
  2.52600000E-02  1.40700000E+00  3.88000000E-01  1.02000000E-01  1.05700000E+00
  2.47000000E-01  1.53300000E+04  2.29900000E+03  5.22400000E+02  1.47300000E+02
  4.75500000E+01  1.67600000E+01  6.20700000E+00  5.22400000E+02  1.47300000E+02
  4.75500000E+01  1.67600000E+01  6.20700000E+00  6.88200000E-01  1.75200000E+00
  2.38400000E-01  7.37600000E-02  3.44600000E+01  7.74900000E+00  2.28000000E+00
  7.15600000E-01  2.14000000E-01  5.97400000E-02  2.31400000E+00  6.45000000E-01
  2.14000000E-01  1.42800000E+00  5.00000000E-01  1.53300000E+04  2.29900000E+03
  5.22400000E+02  1.47300000E+02  4.75500000E+01  1.67600000E+01  6.20700000E+00
  5.22400000E+02  1.47300000E+02  4.75500000E+01  1.67600000E+01  6.20700000E+00
  6.88200000E-01  1.75200000E+00  2.38400000E-01  7.37600000E-02  3.44600000E+01
  7.74900000E+00  2.28000000E+00  7.15600000E-01  2.14000000E-01  5.97400000E-02
  2.31400000E+00  6.45000000E-01  2.14000000E-01  1.42800000E+00  5.00000000E-01
  1.14200000E+04  1.71200000E+03  3.89300000E+02  1.10000000E+02  3.55700000E+01
  1.25400000E+01  4.64400000E+00  3.89300000E+02  1.10000000E+02  3.55700000E+01
  1.25400000E+01  4.64400000E+00  5.11800000E-01  1.29300000E+00  1.78700000E-01
  5.76000000E-02  2.66300000E+01  5.94800000E+00  1.74200000E+00  5.55000000E-01
  1.72500000E-01  4.91000000E-02  1.65400000E+00  4.69000000E-01  1.51000000E-01
  1.09300000E+00  3.64000000E-01  1.53300000E+04  2.29900000E+03  5.22400000E+02
  1.47300000E+02  4.75500000E+01  1.67600000E+01  6.20700000E+00  5.22400000E+02
  1.47300000E+02  4.75500000E+01  1.67600000E+01  6.20700000E+00  6.88200000E-01
  1.75200000E+00  2.38400000E-01  7.37600000E-02  3.44600000E+01  7.74900000E+00
  2.28000000E+00  7.15600000E-01  2.14000000E-01  5.97400000E-02  2.31400000E+00
  6.45000000E-01  2.14000000E-01  1.42800000E+00  5.00000000E-01
Contraction coefficients                   R   N=         119
  2.54948632E-02  1.90362766E-01  8.52162022E-01  1.00000000E+00  1.00000000E+00
  1.00000000E+00  1.00000000E+00  1.00000000E+00  1.00000000E+00  1.00000000E+00
  1.00000000E+00  5.19808943E-04  4.02025621E-03  2.07128267E-02  8.10105536E-02
  2.35962985E-01  4.42653446E-01  3.57064423E-01 -4.42115008E-05 -1.22591041E-03
 -1.05517725E-02 -6.74452633E-02 -1.71198607E-01  1.07329856E+00  1.00000000E+00
  1.00000000E+00  1.00000000E+00  4.11634896E-02  2.57762836E-01  8.02419274E-01
  1.00000000E+00  1.00000000E+00  1.00000000E+00  1.00000000E+00  1.00000000E+00
  1.00000000E+00  1.00000000E+00  1.00000000E+00  5.19808943E-04  4.02025621E-03
  2.07128267E-02  8.10105536E-02  2.35962985E-01  4.42653446E-01  3.57064423E-01
 -4.42115008E-05 -1.22591041E-03 -1.05517725E-02 -6.74452633E-02 -1.71198607E-01
  1.07329856E+00  1.00000000E+00  1.00000000E+00  1.00000000E+00  4.11634896E-02
  2.57762836E-01  8.02419274E-01  1.00000000E+00  1.00000000E+00  1.00000000E+00
  1.00000000E+00  1.00000000E+00  1.00000000E+00  1.00000000E+00  1.00000000E+00
  5.34563860E-04  4.13435660E-03  2.12335358E-02  8.25006224E-02  2.38138871E-01
  4.42551547E-01  3.53757422E-01 -4.89867350E-05 -1.19527323E-03 -1.03490714E-02
 -6.48680190E-02 -1.71552477E-01  1.07289568E+00  1.00000000E+00  1.00000000E+00
  1.00000000E+00  3.98072123E-02  2.49002660E-01  8.10479727E-01  1.00000000E+00
  1.00000000E+00  1.00000000E+00  1.00000000E+00  1.00000000E+00  1.00000000E+00
  1.00000000E+00  1.00000000E+00  5.19808943E-04  4.02025621E-03  2.07128267E-02
  8.10105536E-02  2.35962985E-01  4.42653446E-01  3.57064423E-01 -4.42115008E-05
 -1.22591041E-03 -1.05517725E-02 -6.74452633E-02 -1.71198607E-01  1.07329856E+00
  1.00000000E+00  1.00000000E+00  1.00000000E+00  4.11634896E-02  2.57762836E-01
  8.02419274E-01  1.00000000E+00  1.00000000E+00  1.00000000E+00  1.00000000E+00
  1.00000000E+00  1.00000000E+00  1.00000000E+00  1.00000000E+00
Coordinates of each shell                  R   N=         195
  3.00544188E+00  3.17425866E+00  6.59194643E-32  3.00544188E+00  3.17425866E+00
  6.59194643E-32  3.00544188E+00  3.17425866E+00  6.59194643E-32  3.00544188E+00
  3.17425866E+00  6.59194643E-32  3.00544188E+00  3.17425866E+00  6.59194643E-32
  3.00544188E+00  3.17425866E+00  6.59194643E-32  3.00544188E+00  3.17425866E+00
  6.59194643E-32  3.00544188E+00  3.17425866E+00  6.59194643E-32  3.00544188E+00
  3.17425866E+00  6.59194643E-32  2.74794932E+00  1.36135517E+00  3.20644182E-32
  2.74794932E+00  1.36135517E+00  3.20644182E-32  2.74794932E+00  1.36135517E+00
  3.20644182E-32  2.74794932E+00  1.36135517E+00  3.20644182E-32  2.74794932E+00
  1.36135517E+00  3.20644182E-32  2.74794932E+00  1.36135517E+00  3.20644182E-32
  2.74794932E+00  1.36135517E+00  3.20644182E-32  2.74794932E+00  1.36135517E+00
  3.20644182E-32  2.74794932E+00  1.36135517E+00  3.20644182E-32  2.74794932E+00
  1.36135517E+00  3.20644182E-32  2.74794932E+00  1.36135517E+00  3.20644182E-32
  2.74794932E+00  1.36135517E+00  3.20644182E-32  2.74794932E+00  1.36135517E+00
  3.20644182E-32  2.74794932E+00  1.36135517E+00  3.20644182E-32 -4.20343213E-18
  1.27208279E+00  2.32857424E-32 -4.20343213E-18  1.27208279E+00  2.32857424E-32
 -4.20343213E-18  1.27208279E+00  2.32857424E-32 -4.20343213E-18  1.27208279E+00
  2.32857424E-32 -4.20343213E-18  1.27208279E+00  2.32857424E-32 -4.20343213E-18
  1.27208279E+00  2.32857424E-32 -4.20343213E-18  1.27208279E+00  2.32857424E-32
 -4.20343213E-18  1.27208279E+00  2.32857424E-32 -4.20343213E-18  1.27208279E+00
  2.32857424E-32 -4.20343213E-18  1.27208279E+00  2.32857424E-32 -4.20343213E-18
  1.27208279E+00  2.32857424E-32 -4.20343213E-18  1.27208279E+00  2.32857424E-32
 -4.20343213E-18  1.27208279E+00  2.32857424E-32 -4.20343213E-18  1.27208279E+00
  2.32857424E-32 -4.99379696E-01 -1.43901067E+00 -2.76397537E-32 -4.99379696E-01
 -1.43901067E+00 -2.76397537E-32 -4.99379696E-01 -1.43901067E+00 -2.76397537E-32
 -4.99379696E-01 -1.43901067E+00 -2.76397537E-32 -4.99379696E-01 -1.43901067E+00
 -2.76397537E-32 -4.99379696E-01 -1.43901067E+00 -2.76397537E-32 -4.99379696E-01
 -1.43901067E+00 -2.76397537E-32 -4.99379696E-01 -1.43901067E+00 -2.76397537E-32
 -4.99379696E-01 -1.43901067E+00 -2.76397537E-32 -4.99379696E-01 -1.43901067E+00
 -2.76397537E-32 -4.99379696E-01 -1.43901067E+00 -2.76397537E-32 -4.99379696E-01
 -1.43901067E+00 -2.76397537E-32 -4.99379696E-01 -1.43901067E+00 -2.76397537E-32
 -4.99379696E-01 -1.43901067E+00 -2.76397537E-32 -2.68667232E+00 -1.77108596E+00
 -3.94053092E-32 -2.68667232E+00 -1.77108596E+00 -3.94053092E-32 -2.68667232E+00
 -1.77108596E+00 -3.94053092E-32 -2.68667232E+00 -1.77108596E+00 -3.94053092E-32
 -2.68667232E+00 -1.77108596E+00 -3.94053092E-32 -2.68667232E+00 -1.77108596E+00
 -3.94053092E-32 -2.68667232E+00 -1.77108596E+00 -3.94053092E-32 -2.68667232E+00
 -1.77108596E+00 -3.94053092E-32 -2.68667232E+00 -1.77108596E+00 -3.94053092E-32
 -2.68667232E+00 -1.77108596E+00 -3.94053092E-32 -2.68667232E+00 -1.77108596E+00
 -3.94053092E-32 -2.68667232E+00 -1.77108596E+00 -3.94053092E-32 -2.68667232E+00
 -1.77108596E+00 -3.94053092E-32 -2.68667232E+00 -1.77108596E+00 -3.94053092E-32
Num ILSW                                   I              100
ILSW                                       I   N=         100
           0           0           0           0           2           0
           0           0           0           0           0          -1
           5           0           0           0           0           0
           0           0           0           0           0           0
           1           0           0           0           0           0
           0           0      100000           0          -1           0
           0           0           0           0           0           0
           0           0           0           1           0           0
           0 -2000000000           1           0           0           0
           0           0           4          52           0           0
           0           0           0           0           0           0
           0           0           0           5           0           1
           0           0           0           0           0           0
           0           0           0           0           0           0
           0           0           0           0           0           0
           0           0           0           0           0           0
           0           0           0           0
Num RLSW                                   I               52
RLSW                                       R   N=          52
  1.00000000E+00  1.00000000E+00  1.00000000E+00  1.00000000E+00  1.00000000E+00
  0.00000000E+00  0.00000000E+00  1.00000000E+00  0.00000000E+00  0.00000000E+00
  0.00000000E+00  0.00000000E+00  1.00000000E+00  0.00000000E+00  0.00000000E+00
  0.00000000E+00  0.00000000E+00  1.00000000E+00  0.00000000E+00  0.00000000E+00
  0.00000000E+00  0.00000000E+00  1.00000000E+00  0.00000000E+00  0.00000000E+00
  0.00000000E+00  0.00000000E+00  1.00000000E+00  0.00000000E+00  0.00000000E+00
  0.00000000E+00  0.00000000E+00  1.00000000E+00  0.00000000E+00  0.00000000E+00
  0.00000000E+00  0.00000000E+00  0.00000000E+00  1.00000000E+00  1.00000000E+00
  0.00000000E+00  1.00000000E+00  0.00000000E+00  0.00000000E+00  0.00000000E+00
  0.00000000E+00  0.00000000E+00  0.00000000E+00  0.00000000E+00  0.00000000E+00
  0.00000000E+00  0.00000000E+00
MxBond                                     I                2
NBond                                      I   N=           5
           1           2           2           2           1
IBond                                      I   N=          10
           2           0           1           3           2           4
           3           5           4           0
RBond                                      R   N=          10
  1.00000000E+00  0.00000000E+00  1.00000000E+00  1.00000000E+00  1.00000000E+00
  1.00000000E+00  1.00000000E+00  2.00000000E+00  2.00000000E+00  0.00000000E+00
Virial Ratio                               R      2.002384075966847E+00
SCF Energy                                 R     -2.795017975103473E+02
MP2 Energy                                 R     -2.804465493884803E+02
Total Energy                               R     -2.804465493884803E+02
Post-SCF wavefunction norm                 R      1.120166021189333E+00
RMS Density                                R      3.816323066193808E-09
Job Status                                 I                1
Nuclear derivative order                   I                0
External E-field                           R   N=          35
  0.00000000E+00  0.00000000E+00  0.00000000E+00  0.00000000E+00  0.00000000E+00
  0.00000000E+00  0.00000000E+00  0.00000000E+00  0.00000000E+00  0.00000000E+00
  0.00000000E+00  0.00000000E+00  0.00000000E+00  0.00000000E+00  0.00000000E+00
  0.00000000E+00  0.00000000E+00  0.00000000E+00  0.00000000E+00  0.00000000E+00
  0.00000000E+00  0.00000000E+00  0.00000000E+00  0.00000000E+00  0.00000000E+00
  0.00000000E+00  0.00000000E+00  0.00000000E+00  0.00000000E+00  0.00000000E+00
  0.00000000E+00  0.00000000E+00  0.00000000E+00  0.00000000E+00  0.00000000E+00
IOpCl                                      I                0
IROHF                                      I                0
Alpha Orbital Energies                     R   N=         207
 -2.06912132E+01 -2.06843830E+01 -2.06589567E+01 -1.58129286E+01 -1.62397110E+00
 -1.49432720E+00 -1.25473258E+00 -9.48006446E-01 -7.71703788E-01 -7.60675878E-01
 -7.11569578E-01 -6.79925964E-01 -6.20039126E-01 -5.87165604E-01 -4.84929252E-01
 -4.72501398E-01  2.93768704E-02  7.17380270E-02  8.59502508E-02  1.01796019E-01
  1.33714452E-01  1.34069957E-01  1.44114137E-01  1.54414473E-01  1.78330169E-01
  1.94401827E-01  2.00008282E-01  2.06241608E-01  2.20897427E-01  2.35388548E-01
  2.37401323E-01  2.67107854E-01  2.93427752E-01  3.04233558E-01  3.09778350E-01
  3.43632657E-01  3.49278583E-01  3.87132849E-01  4.20132122E-01  4.32476679E-01
  5.26936627E-01  5.29122037E-01  5.58915978E-01  5.82257589E-01  6.25707438E-01
  6.38512040E-01  6.74211469E-01  6.83997311E-01  7.06192888E-01  7.12181749E-01
  7.19898573E-01  7.30594728E-01  7.45134699E-01  7.89157100E-01  7.89346413E-01
  8.09040672E-01  8.13419178E-01  8.32000567E-01  8.68928116E-01  9.07111166E-01
  9.23668125E-01  9.25193755E-01  9.59377471E-01  9.78336432E-01  9.82915157E-01
  1.01522951E+00  1.05260493E+00  1.05533703E+00  1.08195702E+00  1.11736787E+00
  1.13795663E+00  1.18882855E+00  1.22092429E+00  1.23077113E+00  1.33824077E+00
  1.34724562E+00  1.38761560E+00  1.45097594E+00  1.48880608E+00  1.51325319E+00
  1.53900191E+00  1.56727249E+00  1.57999576E+00  1.61645791E+00  1.66482198E+00
  1.66931064E+00  1.70364331E+00  1.78736384E+00  1.83210460E+00  1.83310237E+00
  1.87947473E+00  1.90885008E+00  1.95760475E+00  1.99012788E+00  2.00777410E+00
  2.07578280E+00  2.11532450E+00  2.13195079E+00  2.15050204E+00  2.22177568E+00
  2.26536634E+00  2.26708450E+00  2.28766624E+00  2.31492947E+00  2.34681561E+00
  2.38456591E+00  2.42029001E+00  2.42326149E+00  2.45513955E+00  2.46341675E+00
  2.47375800E+00  2.50392181E+00  2.58857262E+00  2.59367995E+00  2.61602034E+00
  2.62934364E+00  2.63369606E+00  2.67036612E+00  2.75636790E+00  2.82042360E+00
  2.86721120E+00  2.89079258E+00  2.89455385E+00  2.92066619E+00  2.96229233E+00
  3.02761824E+00  3.06741556E+00  3.12349288E+00  3.19816594E+00  3.23103580E+00
  3.31957456E+00  3.34035823E+00  3.51187345E+00  3.65524428E+00  3.83985908E+00
  3.84950520E+00  4.15363189E+00  4.15481688E+00  4.18414991E+00  4.25603252E+00
  4.36392962E+00  4.38973628E+00  4.46550005E+00  4.50801379E+00  4.66525570E+00
  4.68529083E+00  4.80688095E+00  4.82392488E+00  4.83376240E+00  4.89597395E+00
  5.02134112E+00  5.07800731E+00  5.10363509E+00  5.14994649E+00  5.19032494E+00
  5.23323542E+00  5.27435710E+00  5.31182676E+00  5.33246778E+00  5.35286242E+00
  5.61127960E+00  5.67377452E+00  5.77568231E+00  5.81164999E+00  5.95682906E+00
  6.16277928E+00  6.30550896E+00  6.34253426E+00  6.39804590E+00  6.49337698E+00
  6.50580367E+00  6.61176906E+00  6.66692581E+00  6.69622292E+00  6.75323577E+00
  6.76605657E+00  6.83001347E+00  6.89770813E+00  6.99683866E+00  7.05770515E+00
  7.06478763E+00  7.09171056E+00  7.12321772E+00  7.15849730E+00  7.18100360E+00
  7.22351644E+00  7.24173201E+00  7.31155194E+00  7.32587543E+00  7.34688202E+00
  7.39830955E+00  7.41154232E+00  7.48409634E+00  7.60905909E+00  7.61278954E+00
  7.62794456E+00  7.66580782E+00  7.78340752E+00  7.88634007E+00  8.09074209E+00
  8.30901775E+00  8.42587280E+00  8.54600418E+00  1.33976862E+01  1.43985145E+01
  1.51317367E+01  1.61506208E+01
Alpha MO coefficients                      R   N=       42849
  9.15561638E-05 -7.74571041E-04 -8.17203183E-04 -6.42037879E-06 -3.85879703E-05
 -2.16974265E-05  0.00000000E+00 -2.83655048E-05  1.41954102E-04  0.00000000E+00
  1.04921838E-04  7.22528950E-05  0.00000000E+00  3.54961722E-05  0.00000000E+00
  0.00000000E+00 -3.45742299E-05  2.68681783E-05  6.39861364E-07  0.00000000E+00
  0.00000000E+00 -1.14629304E-04  1.08370258E-04  4.38961134E-03 -2.68380563E-04
  1.18760436E-06  1.76985029E-03  1.94957499E-03  1.06889546E-04  4.22381078E-06
  0.00000000E+00 -6.15719925E-04  3.47335253E-06  0.00000000E+00 -1.12739489E-03
  8.94459132E-04  0.00000000E+00 -4.20393798E-04  6.83733228E-05  0.00000000E+00
  2.91753763E-05  0.00000000E+00  0.00000000E+00 -5.61426467E-05  4.56873334E-06
 -3.90024031E-04  0.00000000E+00  0.00000000E+00  7.35623064E-04 -2.64837356E-05
 -4.59233547E-04  0.00000000E+00  0.00000000E+00  2.47721995E-04 -2.38987815E-05
  0.00000000E+00  8.04854878E-05  1.13756796E-05  0.00000000E+00  0.00000000E+00
 -1.10129343E-04 -4.93002891E-06  0.00000000E+00  2.53542974E-04 -2.80300081E-05
  0.00000000E+00  0.00000000E+00 -3.63530696E-04  5.98235219E-05  9.76915196E-01
 -9.21262742E-03  4.33143545E-02  2.03887005E-03 -9.77800423E-04  1.50365410E-03
 -1.35765862E-03  0.00000000E+00 -1.44755200E-03  1.38625588E-03  0.00000000E+00
  3.71861498E-05 -1.22400080E-03  0.00000000E+00 -1.49982599E-04 -1.86360091E-05
  0.00000000E+00  4.75553872E-05  0.00000000E+00  0.00000000E+00 -3.41383859E-05
  1.92550323E-05  7.45229320E-04  0.00000000E+00  0.00000000E+00 -2.44708137E-04
 -3.86457325E-04 -3.44799001E-04  0.00000000E+00  0.00000000E+00 -3.24100264E-04
 -4.07736518E-04  0.00000000E+00  4.78491739E-05 -4.97301843E-05  0.00000000E+00
  0.00000000E+00 -4.01700270E-05 -1.46046104E-05  0.00000000E+00  2.35723930E-05
  2.52619762E-05  0.00000000E+00  0.00000000E+00 -3.06535284E-04 -1.39741557E-04
  3.88138201E-05  4.50215416E-05 -2.62737363E-04 -7.26847676E-04 -1.48624176E-04
 -2.70391915E-05 -9.63508757E-05  0.00000000E+00  2.69351593E-04  7.02765228E-04
  0.00000000E+00 -8.66498247E-04 -5.36473316E-04  0.00000000E+00 -1.33252487E-04
 -3.21346966E-05  0.00000000E+00 -1.82831889E-05  0.00000000E+00  0.00000000E+00
 -2.97551325E-05  1.50842891E-05 -3.25408297E-04  0.00000000E+00  0.00000000E+00
 -8.22592436E-04  1.31667176E-04 -3.59948150E-05  0.00000000E+00  0.00000000E+00
  1.15789759E-04 -1.09637379E-04  0.00000000E+00 -2.07954856E-05 -1.19460471E-04
  0.00000000E+00  0.00000000E+00 -6.34348157E-05 -1.36855960E-04  0.00000000E+00
  2.77111979E-06 -1.49996178E-04  0.00000000E+00  0.00000000E+00  4.38980898E-05
 -4.18566092E-04 -2.47058246E-03  1.20578087E-04 -1.18602400E-04 -2.68671850E-04
  1.25308249E-04 -7.65994434E-06 -2.73776740E-05  0.00000000E+00  6.80842989E-05
  1.61789949E-04  0.00000000E+00  2.29323221E-04  2.26277365E-04  0.00000000E+00
  1.28971999E-04  2.61783541E-05  0.00000000E+00 -3.33205058E-06  0.00000000E+00
  0.00000000E+00 -1.77615731E-05  9.00967480E-07  7.59107683E-07  0.00000000E+00
  0.00000000E+00  7.96178158E-05  8.91043527E-05 -1.03688175E-04  0.00000000E+00
  0.00000000E+00  1.63052620E-04  1.72132248E-04  0.00000000E+00  1.58778124E-05
 -3.54516078E-06  0.00000000E+00  0.00000000E+00 -4.25365092E-06 -1.20726556E-05
  0.00000000E+00 -3.38412007E-05  4.47456516E-05  0.00000000E+00  0.00000000E+00
  8.28255798E-05  9.07155517E-05  3.36601775E-05 -9.85164571E-04 -4.96099175E-04
 -1.18945898E-05 -2.39385532E-05  1.69948859E-05  0.00000000E+00 -2.64452357E-06
  2.69591811E-04  0.00000000E+00 -4.76515706E-05  1.35276747E-04  0.00000000E+00
  2.34629016E-05  0.00000000E+00  0.00000000E+00  1.45573407E-05  1.31637248E-05
 -3.00892694E-05  0.00000000E+00  0.00000000E+00  1.42482414E-05  4.05366451E-05
  1.07311296E-04  8.38808358E-05 -2.88711783E-05  7.41787836E-04  6.63100045E-04
  9.89522765E-06  2.69427308E-06  0.00000000E+00 -7.07191794E-05  1.21422312E-05
  0.00000000E+00  3.90058467E-04  9.03497945E-04  0.00000000E+00  1.19081161E-05
  8.63441567E-05  0.00000000E+00 -2.08574857E-06  0.00000000E+00  0.00000000E+00
 -4.59498798E-07 -6.79997186E-06 -3.61517735E-05  0.00000000E+00  0.00000000E+00
 -1.38719279E-05  9.14517750E-05 -2.19903029E-05  0.00000000E+00  0.00000000E+00
 -2.73431475E-04 -1.37806125E-04  0.00000000E+00  9.60748995E-06  6.13499785E-06
  0.00000000E+00  0.00000000E+00  2.55182819E-06 -1.79561549E-05  0.00000000E+00
 -4.36666068E-05 -3.83611530E-05  0.00000000E+00  0.00000000E+00 -8.40856344E-05
  2.34979604E-05  2.50928660E-03  3.91893691E-05  8.64880080E-05 -3.59103695E-05
 -4.80181834E-04  7.32637925E-06  1.57997201E-05  0.00000000E+00 -6.27163383E-05
 -5.43138030E-05  0.00000000E+00  2.44358303E-04 -1.98495051E-04  0.00000000E+00
 -1.92066634E-04 -6.56723965E-05  0.00000000E+00 -8.51906495E-06  0.00000000E+00
  0.00000000E+00  2.27910442E-05  1.96352132E-05  3.46713128E-06  0.00000000E+00
  0.00000000E+00 -1.20045343E-04 -4.50720763E-05  5.39455866E-07  0.00000000E+00
  0.00000000E+00 -2.24196737E-04 -2.16621411E-04  0.00000000E+00  2.99958474E-06
 -9.66404650E-07  0.00000000E+00  0.00000000E+00  1.35961720E-06 -1.30626707E-05
  0.00000000E+00 -4.48819610E-05  5.63937579E-06  0.00000000E+00  0.00000000E+00
 -7.58852411E-05  1.86330034E-04  2.58778624E-04  1.46590698E-03 -7.78146710E-05
 -1.53194740E-03  4.11664394E-04 -1.44333755E-04  7.43835399E-07  0.00000000E+00
 -2.09230871E-03 -4.01706652E-04  0.00000000E+00  1.01615367E-03  7.47484822E-04
  0.00000000E+00 -1.71373118E-04  5.81378222E-05  0.00000000E+00 -1.23401025E-04
  0.00000000E+00  0.00000000E+00  2.43434008E-04  9.31255405E-05 -4.41727971E-04
  0.00000000E+00  0.00000000E+00  9.01226849E-04 -7.00094752E-05  1.14899518E-05
  0.00000000E+00  0.00000000E+00 -3.32782224E-04 -1.24758159E-04  0.00000000E+00
 -1.11875485E-06  1.55913064E-05  0.00000000E+00  0.00000000E+00  1.88055927E-05
  1.33607367E-05  0.00000000E+00  1.64278855E-04 -7.18875994E-05  0.00000000E+00
  0.00000000E+00 -2.40814132E-04  4.35438084E-05  9.76649932E-01 -9.84767035E-03
  4.35676311E-02  4.48043900E-03 -4.58033055E-04  2.14965484E-03  4.78542645E-04
  0.00000000E+00 -2.38687675E-03 -6.01249276E-04  0.00000000E+00  1.13257487E-03
 -2.62068094E-06  0.00000000E+00  3.14768442E-06 -4.36935428E-05  0.00000000E+00
 -2.32169220E-04  0.00000000E+00  0.00000000E+00  1.03003110E-04  3.12405476E-05
  3.91126210E-04  0.00000000E+00  0.00000000E+00 -8.36190798E-04 -4.16709926E-04
 -1.55269182E-04  0.00000000E+00  0.00000000E+00  2.54141810E-04  1.79365690E-05
  0.00000000E+00  5.24836354E-05  1.76255741E-05  0.00000000E+00  0.00000000E+00
 -2.22346714E-05 -1.32586633E-05  0.00000000E+00  1.37856917E-04  8.86462383E-06
  0.00000000E+00  0.00000000E+00 -1.91027201E-04 -1.39649036E-04  4.81467749E-04
  2.21891943E-03  1.46749460E-04  9.92093667E-06 -4.51975184E-05 -2.44634749E-04
  0.00000000E+00  5.25487461E-05 -1.30689697E-03  0.00000000E+00  2.58327162E-04
 -3.45645397E-04  0.00000000E+00  1.72788100E-09  0.00000000E+00  0.00000000E+00
  7.63954828E-05  1.02643635E-06 -1.47715220E-04  0.00000000E+00  0.00000000E+00
 -5.36517091E-04  1.99019071E-05  9.76829178E-01 -9.14794294E-03  4.34594373E-02
  4.56232099E-06 -1.06588863E-03 -1.53235253E-03  1.47292820E-03  0.00000000E+00
  1.53968096E-03 -1.30008693E-03  0.00000000E+00 -6.20630596E-04 -9.98105269E-04
  0.00000000E+00  6.19896183E-05  2.79508783E-06  0.00000000E+00  2.58417054E-05
  0.00000000E+00  0.00000000E+00 -1.17317739E-04  1.05608958E-05  7.69110058E-04
  0.00000000E+00  0.00000000E+00 -2.13462895E-04 -2.80974760E-04 -2.61953078E-04
  0.00000000E+00  0.00000000E+00  2.06569463E-04  1.48733491E-04  0.00000000E+00
 -6.41729148E-05 -7.06895483E-07  0.00000000E+00  0.00000000E+00  2.05432951E-05
  1.00955029E-05  0.00000000E+00  6.63001913E-06  1.32100299E-04  0.00000000E+00
  0.00000000E+00  2.83794402E-04  8.38801389E-05 -4.47943497E-03 -2.11265578E-04