title                                                                   
SP        RMP2-FC                                                     Aug-CC-pVTZ         
Number of atoms                            I                5
Info1-9                                    I   N=           9
          33          24           0           0           0         110
           1           2           1
Full Title                                 C   N=           1
title       
Route                                      C   N=           4
#p SP mp2/aug-cc-pvtz density=current           
Charge                                     I                0
Multiplicity                               I                1
Number of electrons                        I               32
Number of alpha electrons                  I               16
Number of beta electrons                   I               16
Number of basis functions                  I              207
Number of independent functions            I              207
Number of point charges in /Mol/           I                0
Number of translation vectors              I                0
Atomic numbers                             I   N=           5
           1           8           8           7           8
Nuclear charges                            R   N=           5
  1.00000000E+00  8.00000000E+00  8.00000000E+00  7.00000000E+00  8.00000000E+00
Current cartesian coordinates              R   N=          15
  2.93526626E+00  3.17550802E+00 -1.32278497E-31  2.74814633E+00  1.35399558E+00
 -1.46100240E-31 -1.24848213E-16  1.27100884E+00  3.12379829E-32 -5.05579505E-01
 -1.43893529E+00  3.68505433E-32 -2.67267254E+00 -1.76287455E+00  1.29230267E-31
Number of symbols in /Mol/                 I                0
Force Field                                I                0
Atom Types                                 C   N=           5
                                                            
Int Atom Types                             I   N=           5
           0           0           0           0           0
MM charges                                 R   N=           5
  0.00000000E+00  0.00000000E+00  0.00000000E+00  0.00000000E+00  0.00000000E+00
Integer atomic weights                     I   N=           5
           1          16          16          14          16
Real atomic weights                        R   N=           5
  1.00782504E+00  1.59949146E+01  1.59949146E+01  1.40030740E+01  1.59949146E+01
Atom fragment info                         I   N=           5
           0           0           0           0           0
Atom residue num                           I   N=           5
           0           0           0           0           0
Nuclear spins                              I   N=           5
           1           0           0           2           0
Nuclear ZEff                               R   N=           5
 -1.00000000E+00 -5.60000000E+00 -5.60000000E+00 -4.55000000E+00 -5.60000000E+00
Nuclear ZNuc                               R   N=           5
  1.00000000E+00  8.00000000E+00  8.00000000E+00  7.00000000E+00  8.00000000E+00
Nuclear QMom                               R   N=           5
  0.00000000E+00  0.00000000E+00  0.00000000E+00  2.04400000E+00  0.00000000E+00
Nuclear GFac                               R   N=           5
  2.79284600E+00  0.00000000E+00  0.00000000E+00  4.03761000E-01  0.00000000E+00
MicOpt                                     I   N=           5
          -1          -1          -1          -1          -1
Number of residues                         I                0
Number of secondary structures             I                0
SymInf integers                            I   N=          26
           1           2           1           1           1           1
           1          -1           0           0           0           0
           0           0           0           0           0           0
           0           0           0           0           0           0
           0           0
RotTr to input orientation                 R   N=          12
 -9.94764900E-01 -9.86218360E-17 -1.02189993E-01  1.02189993E-01 -7.26039345E-17
 -9.94764900E-01  9.06861452E-17 -1.00000000E+00  8.23020103E-17  2.59539471E+00
  0.00000000E+00  3.45883876E+00
Number of contracted shells                I               65
Number of primitive shells                 I              119
Pure/Cartesian d shells                    I                0
Pure/Cartesian f shells                    I                0
Highest angular momentum                   I                3
Largest degree of contraction              I                7
Shell types                                I   N=          65
           0           0           0           0           1           1
           1          -2          -2           0           0           0
           0           0           1           1           1           1
          -2          -2          -2          -3          -3           0
           0           0           0           0           1           1
           1           1          -2          -2          -2          -3
          -3           0           0           0           0           0
           1           1           1           1          -2          -2
          -2          -3          -3           0           0           0
           0           0           1           1           1           1
          -2          -2          -2          -3          -3
Number of primitives per shell             I   N=          65
           3           1           1           1           1           1
           1           1           1           7           6           1
           1           1           3           1           1           1
           1           1           1           1           1           7
           6           1           1           1           3           1
           1           1           1           1           1           1
           1           7           6           1           1           1
           3           1           1           1           1           1
           1           1           1           7           6           1
           1           1           3           1           1           1
           1           1           1           1           1
Shell to atom map                          I   N=          65
           1           1           1           1           1           1
           1           1           1           2           2           2
           2           2           2           2           2           2
           2           2           2           2           2           3
           3           3           3           3           3           3
           3           3           3           3           3           3
           3           4           4           4           4           4
           4           4           4           4           4           4
           4           4           4           5           5           5
           5           5           5           5           5           5
           5           5           5           5           5
Primitive exponents                        R   N=         119
  3.38700000E+01  5.09500000E+00  1.15900000E+00  3.25800000E-01  1.02700000E-01
  2.52600000E-02  1.40700000E+00  3.88000000E-01  1.02000000E-01  1.05700000E+00
  2.47000000E-01  1.53300000E+04  2.29900000E+03  5.22400000E+02  1.47300000E+02
  4.75500000E+01  1.67600000E+01  6.20700000E+00  5.22400000E+02  1.47300000E+02
  4.75500000E+01  1.67600000E+01  6.20700000E+00  6.88200000E-01  1.75200000E+00
  2.38400000E-01  7.37600000E-02  3.44600000E+01  7.74900000E+00  2.28000000E+00
  7.15600000E-01  2.14000000E-01  5.97400000E-02  2.31400000E+00  6.45000000E-01
  2.14000000E-01  1.42800000E+00  5.00000000E-01  1.53300000E+04  2.29900000E+03
  5.22400000E+02  1.47300000E+02  4.75500000E+01  1.67600000E+01  6.20700000E+00
  5.22400000E+02  1.47300000E+02  4.75500000E+01  1.67600000E+01  6.20700000E+00
  6.88200000E-01  1.75200000E+00  2.38400000E-01  7.37600000E-02  3.44600000E+01
  7.74900000E+00  2.28000000E+00  7.15600000E-01  2.14000000E-01  5.97400000E-02
  2.31400000E+00  6.45000000E-01  2.14000000E-01  1.42800000E+00  5.00000000E-01
  1.14200000E+04  1.71200000E+03  3.89300000E+02  1.10000000E+02  3.55700000E+01
  1.25400000E+01  4.64400000E+00  3.89300000E+02  1.10000000E+02  3.55700000E+01
  1.25400000E+01  4.64400000E+00  5.11800000E-01  1.29300000E+00  1.78700000E-01
  5.76000000E-02  2.66300000E+01  5.94800000E+00  1.74200000E+00  5.55000000E-01
  1.72500000E-01  4.91000000E-02  1.65400000E+00  4.69000000E-01  1.51000000E-01
  1.09300000E+00  3.64000000E-01  1.53300000E+04  2.29900000E+03  5.22400000E+02
  1.47300000E+02  4.75500000E+01  1.67600000E+01  6.20700000E+00  5.22400000E+02
  1.47300000E+02  4.75500000E+01  1.67600000E+01  6.20700000E+00  6.88200000E-01
  1.75200000E+00  2.38400000E-01  7.37600000E-02  3.44600000E+01  7.74900000E+00
  2.28000000E+00  7.15600000E-01  2.14000000E-01  5.97400000E-02  2.31400000E+00
  6.45000000E-01  2.14000000E-01  1.42800000E+00  5.00000000E-01
Contraction coefficients                   R   N=         119
  2.54948632E-02  1.90362766E-01  8.52162022E-01  1.00000000E+00  1.00000000E+00
  1.00000000E+00  1.00000000E+00  1.00000000E+00  1.00000000E+00  1.00000000E+00
  1.00000000E+00  5.19808943E-04  4.02025621E-03  2.07128267E-02  8.10105536E-02
  2.35962985E-01  4.42653446E-01  3.57064423E-01 -4.42115008E-05 -1.22591041E-03
 -1.05517725E-02 -6.74452633E-02 -1.71198607E-01  1.07329856E+00  1.00000000E+00
  1.00000000E+00  1.00000000E+00  4.11634896E-02  2.57762836E-01  8.02419274E-01
  1.00000000E+00  1.00000000E+00  1.00000000E+00  1.00000000E+00  1.00000000E+00
  1.00000000E+00  1.00000000E+00  1.00000000E+00  5.19808943E-04  4.02025621E-03
  2.07128267E-02  8.10105536E-02  2.35962985E-01  4.42653446E-01  3.57064423E-01
 -4.42115008E-05 -1.22591041E-03 -1.05517725E-02 -6.74452633E-02 -1.71198607E-01
  1.07329856E+00  1.00000000E+00  1.00000000E+00  1.00000000E+00  4.11634896E-02
  2.57762836E-01  8.02419274E-01  1.00000000E+00  1.00000000E+00  1.00000000E+00
  1.00000000E+00  1.00000000E+00  1.00000000E+00  1.00000000E+00  1.00000000E+00
  5.34563860E-04  4.13435660E-03  2.12335358E-02  8.25006224E-02  2.38138871E-01
  4.42551547E-01  3.53757422E-01 -4.89867350E-05 -1.19527323E-03 -1.03490714E-02
 -6.48680190E-02 -1.71552477E-01  1.07289568E+00  1.00000000E+00  1.00000000E+00
  1.00000000E+00  3.98072123E-02  2.49002660E-01  8.10479727E-01  1.00000000E+00
  1.00000000E+00  1.00000000E+00  1.00000000E+00  1.00000000E+00  1.00000000E+00
  1.00000000E+00  1.00000000E+00  5.19808943E-04  4.02025621E-03  2.07128267E-02
  8.10105536E-02  2.35962985E-01  4.42653446E-01  3.57064423E-01 -4.42115008E-05
 -1.22591041E-03 -1.05517725E-02 -6.74452633E-02 -1.71198607E-01  1.07329856E+00
  1.00000000E+00  1.00000000E+00  1.00000000E+00  4.11634896E-02  2.57762836E-01
  8.02419274E-01  1.00000000E+00  1.00000000E+00  1.00000000E+00  1.00000000E+00
  1.00000000E+00  1.00000000E+00  1.00000000E+00  1.00000000E+00
Coordinates of each shell                  R   N=         195
  2.93526626E+00  3.17550802E+00 -7.08792958E-32  2.93526626E+00  3.17550802E+00
 -7.08792958E-32  2.93526626E+00  3.17550802E+00 -7.08792958E-32  2.93526626E+00
  3.17550802E+00 -7.08792958E-32  2.93526626E+00  3.17550802E+00 -7.08792958E-32
  2.93526626E+00  3.17550802E+00 -7.08792958E-32  2.93526626E+00  3.17550802E+00
 -7.08792958E-32  2.93526626E+00  3.17550802E+00 -7.08792958E-32  2.93526626E+00
  3.17550802E+00 -7.08792958E-32  2.74814633E+00  1.35399558E+00 -7.63391548E-32
  2.74814633E+00  1.35399558E+00 -7.63391548E-32  2.74814633E+00  1.35399558E+00
 -7.63391548E-32  2.74814633E+00  1.35399558E+00 -7.63391548E-32  2.74814633E+00
  1.35399558E+00 -7.63391548E-32  2.74814633E+00  1.35399558E+00 -7.63391548E-32
  2.74814633E+00  1.35399558E+00 -7.63391548E-32  2.74814633E+00  1.35399558E+00
 -7.63391548E-32  2.74814633E+00  1.35399558E+00 -7.63391548E-32  2.74814633E+00
  1.35399558E+00 -7.63391548E-32  2.74814633E+00  1.35399558E+00 -7.63391548E-32
  2.74814633E+00  1.35399558E+00 -7.63391548E-32  2.74814633E+00  1.35399558E+00
 -7.63391548E-32  2.74814633E+00  1.35399558E+00 -7.63391548E-32 -3.41155696E-17
  1.27100884E+00  7.83319677E-33 -3.41155696E-17  1.27100884E+00  7.83319677E-33
 -3.41155696E-17  1.27100884E+00  7.83319677E-33 -3.41155696E-17  1.27100884E+00
  7.83319677E-33 -3.41155696E-17  1.27100884E+00  7.83319677E-33 -3.41155696E-17
  1.27100884E+00  7.83319677E-33 -3.41155696E-17  1.27100884E+00  7.83319677E-33
 -3.41155696E-17  1.27100884E+00  7.83319677E-33 -3.41155696E-17  1.27100884E+00
  7.83319677E-33 -3.41155696E-17  1.27100884E+00  7.83319677E-33 -3.41155696E-17
  1.27100884E+00  7.83319677E-33 -3.41155696E-17  1.27100884E+00  7.83319677E-33
 -3.41155696E-17  1.27100884E+00  7.83319677E-33 -3.41155696E-17  1.27100884E+00
  7.83319677E-33 -5.05579505E-01 -1.43893529E+00  6.71124792E-33 -5.05579505E-01
 -1.43893529E+00  6.71124792E-33 -5.05579505E-01 -1.43893529E+00  6.71124792E-33
 -5.05579505E-01 -1.43893529E+00  6.71124792E-33 -5.05579505E-01 -1.43893529E+00
  6.71124792E-33 -5.05579505E-01 -1.43893529E+00  6.71124792E-33 -5.05579505E-01
 -1.43893529E+00  6.71124792E-33 -5.05579505E-01 -1.43893529E+00  6.71124792E-33
 -5.05579505E-01 -1.43893529E+00  6.71124792E-33 -5.05579505E-01 -1.43893529E+00
  6.71124792E-33 -5.05579505E-01 -1.43893529E+00  6.71124792E-33 -5.05579505E-01
 -1.43893529E+00  6.71124792E-33 -5.05579505E-01 -1.43893529E+00  6.71124792E-33
 -5.05579505E-01 -1.43893529E+00  6.71124792E-33 -2.67267254E+00 -1.76287455E+00
  7.14935281E-32 -2.67267254E+00 -1.76287455E+00  7.14935281E-32 -2.67267254E+00
 -1.76287455E+00  7.14935281E-32 -2.67267254E+00 -1.76287455E+00  7.14935281E-32
 -2.67267254E+00 -1.76287455E+00  7.14935281E-32 -2.67267254E+00 -1.76287455E+00
  7.14935281E-32 -2.67267254E+00 -1.76287455E+00  7.14935281E-32 -2.67267254E+00
 -1.76287455E+00  7.14935281E-32 -2.67267254E+00 -1.76287455E+00  7.14935281E-32
 -2.67267254E+00 -1.76287455E+00  7.14935281E-32 -2.67267254E+00 -1.76287455E+00
  7.14935281E-32 -2.67267254E+00 -1.76287455E+00  7.14935281E-32 -2.67267254E+00
 -1.76287455E+00  7.14935281E-32 -2.67267254E+00 -1.76287455E+00  7.14935281E-32
Num ILSW                                   I              100
ILSW                                       I   N=         100
           0           0           0           0           2           0
           0           0           0           0           0          -1
           5           0           0           0           0           0
           0           0           0           0           0           0
           1           0           0           0           0           0
           0           0      100000           0          -1           0
           0           0           0           0           0           0
           0           0           0           1           0           0
           0 -2000000000           1           0           0           0
           0           0           4          52           0           0
           0           0           0           0           0           0
           0           0           0           5           0           1
           0           0           0           0           0           0
           0           0           0           0           0           0
           0           0           0           0           0           0
           0           0           0           0           0           0
           0           0           0           0
Num RLSW                                   I               52
RLSW                                       R   N=          52
  1.00000000E+00  1.00000000E+00  1.00000000E+00  1.00000000E+00  1.00000000E+00
  0.00000000E+00  0.00000000E+00  1.00000000E+00  0.00000000E+00  0.00000000E+00
  0.00000000E+00  0.00000000E+00  1.00000000E+00  0.00000000E+00  0.00000000E+00
  0.00000000E+00  0.00000000E+00  1.00000000E+00  0.00000000E+00  0.00000000E+00
  0.00000000E+00  0.00000000E+00  1.00000000E+00  0.00000000E+00  0.00000000E+00
  0.00000000E+00  0.00000000E+00  1.00000000E+00  0.00000000E+00  0.00000000E+00
  0.00000000E+00  0.00000000E+00  1.00000000E+00  0.00000000E+00  0.00000000E+00
  0.00000000E+00  0.00000000E+00  0.00000000E+00  1.00000000E+00  1.00000000E+00
  0.00000000E+00  1.00000000E+00  0.00000000E+00  0.00000000E+00  0.00000000E+00
  0.00000000E+00  0.00000000E+00  0.00000000E+00  0.00000000E+00  0.00000000E+00
  0.00000000E+00  0.00000000E+00
MxBond                                     I                2
NBond                                      I   N=           5
           1           2           2           2           1
IBond                                      I   N=          10
           2           0           1           3           2           4
           3           5           4           0
RBond                                      R   N=          10
  1.00000000E+00  0.00000000E+00  1.00000000E+00  1.00000000E+00  1.00000000E+00
  1.00000000E+00  1.00000000E+00  2.00000000E+00  2.00000000E+00  0.00000000E+00
Virial Ratio                               R      2.002158193787019E+00
SCF Energy                                 R     -2.795033957628369E+02
MP2 Energy                                 R     -2.804465388618470E+02
Total Energy                               R     -2.804465388618470E+02
Post-SCF wavefunction norm                 R      1.119445712004401E+00
RMS Density                                R      3.497216516246134E-09
Job Status                                 I                1
Nuclear derivative order                   I                0
External E-field                           R   N=          35
  0.00000000E+00  0.00000000E+00  0.00000000E+00  0.00000000E+00  0.00000000E+00
  0.00000000E+00  0.00000000E+00  0.00000000E+00  0.00000000E+00  0.00000000E+00
  0.00000000E+00  0.00000000E+00  0.00000000E+00  0.00000000E+00  0.00000000E+00
  0.00000000E+00  0.00000000E+00  0.00000000E+00  0.00000000E+00  0.00000000E+00
  0.00000000E+00  0.00000000E+00  0.00000000E+00  0.00000000E+00  0.00000000E+00
  0.00000000E+00  0.00000000E+00  0.00000000E+00  0.00000000E+00  0.00000000E+00
  0.00000000E+00  0.00000000E+00  0.00000000E+00  0.00000000E+00  0.00000000E+00
IOpCl                                      I                0
IROHF                                      I                0
Alpha Orbital Energies                     R   N=         207
 -2.06882273E+01 -2.06847721E+01 -2.06585339E+01 -1.58111957E+01 -1.63334088E+00
 -1.49578527E+00 -1.25326820E+00 -9.46551437E-01 -7.74191104E-01 -7.62173883E-01
 -7.14263299E-01 -6.80651351E-01 -6.22616323E-01 -5.88670097E-01 -4.84253668E-01
 -4.70288666E-01  2.99343168E-02  7.51366747E-02  8.57495007E-02  1.01716664E-01
  1.33743017E-01  1.34104285E-01  1.44321453E-01  1.54806367E-01  1.78466181E-01
  1.94041200E-01  2.00232994E-01  2.06374917E-01  2.21177829E-01  2.36392405E-01
  2.37462171E-01  2.66178824E-01  2.94579510E-01  3.04332569E-01  3.10990298E-01
  3.43305883E-01  3.50124006E-01  3.87658299E-01  4.22535366E-01  4.31806777E-01
  5.27106864E-01  5.30684641E-01  5.59090615E-01  5.81891211E-01  6.31825703E-01
  6.37970852E-01  6.70988564E-01  6.85376328E-01  7.06513795E-01  7.11458950E-01
  7.24505526E-01  7.30084248E-01  7.44660460E-01  7.92161049E-01  7.92762577E-01
  8.09957442E-01  8.13745744E-01  8.33602420E-01  8.69176761E-01  9.09343598E-01
  9.22993164E-01  9.27361202E-01  9.57224765E-01  9.79938846E-01  9.85609579E-01
  1.01702291E+00  1.05274509E+00  1.05589757E+00  1.08481274E+00  1.11924225E+00
  1.14228314E+00  1.19020800E+00  1.22238262E+00  1.23435907E+00  1.33969744E+00
  1.35119534E+00  1.38806450E+00  1.45410022E+00  1.48836459E+00  1.51041442E+00
  1.53832643E+00  1.56689062E+00  1.57948964E+00  1.61411179E+00  1.66670806E+00
  1.67034555E+00  1.70289481E+00  1.79372477E+00  1.83028409E+00  1.83509311E+00
  1.88136394E+00  1.90969675E+00  1.95319652E+00  1.99512530E+00  2.00581513E+00
  2.07837873E+00  2.12133904E+00  2.13317293E+00  2.15115730E+00  2.22504520E+00
  2.26535747E+00  2.26588889E+00  2.29062993E+00  2.31571016E+00  2.34766908E+00
  2.38716517E+00  2.42701887E+00  2.43155023E+00  2.45453116E+00  2.46432805E+00
  2.47854023E+00  2.50343172E+00  2.59110188E+00  2.59903046E+00  2.62307980E+00
  2.62921668E+00  2.63619060E+00  2.67117738E+00  2.76193480E+00  2.82984498E+00
  2.85997264E+00  2.88971101E+00  2.89734453E+00  2.92856518E+00  2.96094550E+00
  3.02772009E+00  3.06637375E+00  3.12550639E+00  3.20571020E+00  3.22976051E+00
  3.31890843E+00  3.34351687E+00  3.52192571E+00  3.64438053E+00  3.83988643E+00
  3.84785592E+00  4.15014455E+00  4.16475674E+00  4.18565978E+00  4.28455708E+00
  4.35308550E+00  4.39506533E+00  4.46638011E+00  4.52170067E+00  4.67589749E+00
  4.71275852E+00  4.81050896E+00  4.82715426E+00  4.83219259E+00  4.89523884E+00
  5.02149512E+00  5.07857361E+00  5.10791149E+00  5.13866808E+00  5.18246305E+00
  5.24668748E+00  5.27314450E+00  5.30679378E+00  5.33151733E+00  5.36708080E+00
  5.60844930E+00  5.69255228E+00  5.78075620E+00  5.83415503E+00  5.95460110E+00
  6.17165996E+00  6.31095513E+00  6.33952310E+00  6.39611786E+00  6.49363214E+00
  6.50561059E+00  6.61544887E+00  6.66952748E+00  6.70423578E+00  6.75964873E+00
  6.76549067E+00  6.83962245E+00  6.90248528E+00  7.01735660E+00  7.05907714E+00
  7.05987105E+00  7.09186049E+00  7.13019086E+00  7.15282168E+00  7.18325428E+00
  7.23339939E+00  7.24421551E+00  7.31275007E+00  7.34579160E+00  7.35598710E+00
  7.41202884E+00  7.43351462E+00  7.48605125E+00  7.61050076E+00  7.63403669E+00
  7.64374938E+00  7.66951564E+00  7.79896400E+00  7.90561185E+00  8.09814872E+00
  8.31940962E+00  8.41064263E+00  8.54708787E+00  1.34113234E+01  1.44830573E+01
  1.51670760E+01  1.65043782E+01
Alpha MO coefficients                      R   N=       42849
  9.23830522E-05 -6.26500543E-04 -7.28727459E-04 -3.68493245E-06 -2.14190062E-05
 -2.73835327E-05  0.00000000E+00 -4.30719987E-05  5.80908890E-05  0.00000000E+00
  8.91282986E-05  3.72323729E-05  0.00000000E+00  3.19387364E-05  0.00000000E+00
  0.00000000E+00 -4.98549677E-05  2.10897498E-05 -3.94192394E-06  0.00000000E+00
  0.00000000E+00 -1.38569320E-04  1.17898178E-04  4.76868026E-03 -2.83404860E-04
  2.27606152E-05  1.54389483E-03  1.82572161E-03  1.06170576E-04  7.37201725E-06
  0.00000000E+00 -6.17172380E-04 -3.38667433E-05  0.00000000E+00 -1.10089200E-03
  7.82785724E-04  0.00000000E+00 -4.04550619E-04  6.23379571E-05  0.00000000E+00
  2.88707464E-05  0.00000000E+00  0.00000000E+00 -5.42961794E-05  6.39750990E-06
 -3.78127807E-04  0.00000000E+00  0.00000000E+00  7.41599936E-04 -3.91504862E-05
 -4.46818001E-04  0.00000000E+00  0.00000000E+00  2.45685750E-04 -1.25162280E-05
  0.00000000E+00  8.01707410E-05  1.23741522E-05  0.00000000E+00  0.00000000E+00
 -1.09773679E-04 -1.90935031E-06  0.00000000E+00  2.55576452E-04 -2.81234746E-05
  0.00000000E+00  0.00000000E+00 -3.52470742E-04  5.47202297E-05  9.76897250E-01
 -9.21858534E-03  4.33229444E-02  2.07286145E-03 -9.04750669E-04  1.49043572E-03
 -1.34379982E-03  0.00000000E+00 -1.43405944E-03  1.37221023E-03  0.00000000E+00
  8.18243768E-05 -1.16216016E-03  0.00000000E+00 -1.33091343E-04 -1.22445193E-05
  0.00000000E+00  4.59795713E-05  0.00000000E+00  0.00000000E+00 -3.58639787E-05
  2.22796303E-05  7.44752130E-04  0.00000000E+00  0.00000000E+00 -2.41845283E-04
 -3.86894306E-04 -3.59769445E-04  0.00000000E+00  0.00000000E+00 -3.12361244E-04
 -3.68832010E-04  0.00000000E+00  4.74534498E-05 -4.84519644E-05  0.00000000E+00
  0.00000000E+00 -3.90056864E-05 -1.48783844E-05  0.00000000E+00  2.33080180E-05
  2.14045212E-05  0.00000000E+00  0.00000000E+00 -3.07057341E-04 -1.34905114E-04
  3.70864011E-05  3.45579433E-05 -2.64134735E-04 -7.34575503E-04 -1.66548392E-04
 -2.63249553E-05 -9.60930213E-05  0.00000000E+00  2.81328969E-04  7.04189406E-04
  0.00000000E+00 -8.51336099E-04 -5.07911822E-04  0.00000000E+00 -1.26972927E-04
 -3.23926281E-05  0.00000000E+00 -1.78762898E-05  0.00000000E+00  0.00000000E+00
 -3.07482569E-05  1.52669506E-05 -3.24588106E-04  0.00000000E+00  0.00000000E+00
 -8.23414220E-04  1.31297861E-04 -3.27134888E-05  0.00000000E+00  0.00000000E+00
  1.03559252E-04 -1.17593664E-04  0.00000000E+00 -2.06081174E-05 -1.19428530E-04
  0.00000000E+00  0.00000000E+00 -6.36899856E-05 -1.35403928E-04  0.00000000E+00
  3.32127160E-06 -1.50146099E-04  0.00000000E+00  0.00000000E+00  4.25974864E-05
 -4.17008272E-04 -5.00289575E-03  1.46797158E-04 -2.30614534E-04 -2.50720788E-04
  1.53347538E-04 -1.36789447E-05 -2.84123705E-05  0.00000000E+00  7.71119609E-05
  1.64456255E-04  0.00000000E+00  2.49185856E-04  2.10667769E-04  0.00000000E+00
  1.31369320E-04  2.69299678E-05  0.00000000E+00 -2.54849122E-06  0.00000000E+00
  0.00000000E+00 -1.88830425E-05  1.62187245E-06  2.80940969E-07  0.00000000E+00
  0.00000000E+00  8.69746365E-05  8.50339712E-05 -1.03704735E-04  0.00000000E+00
  0.00000000E+00  1.70962884E-04  1.66669576E-04  0.00000000E+00  1.57045318E-05
 -2.96965426E-06  0.00000000E+00  0.00000000E+00 -3.11257743E-06 -1.23445344E-05
  0.00000000E+00 -3.42444803E-05  4.56440294E-05  0.00000000E+00  0.00000000E+00
  8.52486828E-05  8.87594776E-05  4.04616663E-05 -9.80462507E-04 -4.71673105E-04
 -8.18900071E-06 -2.17606361E-05  1.52724543E-05  0.00000000E+00  3.98163640E-06
  2.70520722E-04  0.00000000E+00 -3.81224878E-05  1.29405363E-04  0.00000000E+00
  2.59399780E-05  0.00000000E+00  0.00000000E+00  1.18963519E-05  1.02128910E-05
 -2.77648298E-05  0.00000000E+00  0.00000000E+00  1.19853421E-05  3.29381639E-05
  1.18749393E-04  8.38153085E-05 -2.83590644E-05  7.56115695E-04  6.44362131E-04
  1.11977544E-05  2.11091494E-06  0.00000000E+00 -7.86772796E-05  1.71032132E-05
  0.00000000E+00  3.18565703E-04  9.03581840E-04  0.00000000E+00 -1.62792780E-06
  7.48771257E-05  0.00000000E+00 -2.34742187E-06  0.00000000E+00  0.00000000E+00
 -6.76732658E-07 -5.46156652E-06 -3.66811016E-05  0.00000000E+00  0.00000000E+00
 -1.20950088E-05  7.87687792E-05 -2.68770262E-05  0.00000000E+00  0.00000000E+00
 -2.64873669E-04 -1.68497325E-04  0.00000000E+00  9.21787378E-06  5.70000814E-06
  0.00000000E+00  0.00000000E+00  1.42861681E-06 -1.80717163E-05  0.00000000E+00
 -3.77549495E-05 -3.69662076E-05  0.00000000E+00  0.00000000E+00 -7.68799031E-05
  2.23013471E-05  5.04222569E-03  1.48427789E-05  2.00578772E-04 -7.11915592E-05
 -4.60460958E-04  9.94220567E-06  1.25431300E-05  0.00000000E+00 -6.13768608E-05
 -4.92311697E-05  0.00000000E+00  2.44960453E-04 -2.20217289E-04  0.00000000E+00
 -1.80570112E-04 -6.31755887E-05  0.00000000E+00 -8.60085339E-06  0.00000000E+00
  0.00000000E+00  2.37875347E-05  2.19866051E-05  7.82995099E-06  0.00000000E+00
  0.00000000E+00 -1.25920791E-04 -6.13314006E-05 -6.52008926E-06  0.00000000E+00
  0.00000000E+00 -2.32296941E-04 -2.30117205E-04  0.00000000E+00  2.93270166E-06
 -1.17786483E-06  0.00000000E+00  0.00000000E+00  1.35190238E-06 -1.11112516E-05
  0.00000000E+00 -4.62134765E-05  7.23314580E-06  0.00000000E+00  0.00000000E+00
 -8.73637444E-05  1.86670779E-04  2.60936998E-04  1.47831009E-03 -2.76474026E-05
 -1.79468046E-03  3.28430844E-04 -1.73376484E-04 -4.53238564E-06  0.00000000E+00
 -2.04446843E-03 -3.78070571E-04  0.00000000E+00  1.16520646E-03  7.65529252E-04
  0.00000000E+00 -1.59069505E-04  5.64216927E-05  0.00000000E+00 -1.19635957E-04
  0.00000000E+00  0.00000000E+00  2.39441207E-04  9.22988321E-05 -4.09004618E-04
  0.00000000E+00  0.00000000E+00  8.33438227E-04 -1.10773080E-04  2.91410594E-05
  0.00000000E+00  0.00000000E+00 -3.73963984E-04 -1.34831570E-04  0.00000000E+00
 -1.99785385E-05  1.14554887E-05  0.00000000E+00  0.00000000E+00  4.12587674E-05
  2.50747744E-05  0.00000000E+00  1.59150459E-04 -7.18080716E-05  0.00000000E+00
  0.00000000E+00 -2.13105705E-04  3.92482624E-05  9.76621270E-01 -9.82964337E-03
  4.35998808E-02  4.73820475E-03 -3.61626570E-04  2.16112767E-03  4.74707220E-04
  0.00000000E+00 -2.32891208E-03 -5.88594452E-04  0.00000000E+00  1.19413268E-03
  7.62225312E-06  0.00000000E+00  1.35963212E-05 -3.89694963E-05  0.00000000E+00
 -2.40600668E-04  0.00000000E+00  0.00000000E+00  1.17072329E-04  3.56917686E-05
  3.82162268E-04  0.00000000E+00  0.00000000E+00 -8.15799451E-04 -4.08396835E-04
 -1.43735804E-04  0.00000000E+00  0.00000000E+00  2.42952614E-04  1.55422173E-05
  0.00000000E+00  4.55042544E-05  1.67512343E-05  0.00000000E+00  0.00000000E+00
 -1.38196944E-05 -9.60245183E-06  0.00000000E+00  1.45400274E-04  9.94171339E-06
  0.00000000E+00  0.00000000E+00 -1.93970124E-04 -1.40883451E-04  4.74899307E-04
  2.06447514E-03  1.18205139E-04  1.44186878E-05 -4.20610800E-05 -2.46723794E-04
  0.00000000E+00  1.05726305E-04 -1.27639187E-03  0.00000000E+00  3.07271438E-04
 -3.41030658E-04  0.00000000E+00 -2.65291022E-06  0.00000000E+00  0.00000000E+00
  7.60858345E-05  1.46632305E-05 -1.60232128E-04  0.00000000E+00  0.00000000E+00
 -5.37285866E-04 -1.88391687E-05  9.76828855E-01 -9.16312843E-03  4.34502301E-02
  1.65125025E-04 -1.14011525E-03 -1.55400087E-03  1.44872736E-03  0.00000000E+00
  1.56731889E-03 -1.29158810E-03  0.00000000E+00 -5.74668899E-04 -8.67771790E-04
  0.00000000E+00  5.65298565E-05 -2.89271564E-05  0.00000000E+00  2.93113010E-05
  0.00000000E+00  0.00000000E+00 -1.17840892E-04 -1.73219956E-06  7.57234095E-04
  0.00000000E+00  0.00000000E+00 -2.03051356E-04 -2.33715441E-04 -2.65875945E-04
  0.00000000E+00  0.00000000E+00  1.70473845E-04  1.27091616E-04  0.00000000E+00
 -6.40440067E-05  1.48987691E-06  0.00000000E+00  0.00000000E+00  1.88799130E-05
  9.65217481E-06  0.00000000E+00 -6.66915625E-07  1.23051086E-04  0.00000000E+00
  0.00000000E+00  2.58494013E-04  8.85103888E-05 -4.86113814E-03 -2.09562939E-04