title                                                                   
SP        RMP2-FC                                                     Aug-CC-pVTZ         
Number of atoms                            I                5
Info1-9                                    I   N=           9
          33          24           0           0           0         110
           1           2           1
Full Title                                 C   N=           1
title       
Route                                      C   N=           4
#p SP mp2/aug-cc-pvtz density=current           
Charge                                     I                0
Multiplicity                               I                1
Number of electrons                        I               32
Number of alpha electrons                  I               16
Number of beta electrons                   I               16
Number of basis functions                  I              207
Number of independent functions            I              207
Number of point charges in /Mol/           I                0
Number of translation vectors              I                0
Atomic numbers                             I   N=           5
           1           8           8           7           8
Nuclear charges                            R   N=           5
  1.00000000E+00  8.00000000E+00  8.00000000E+00  7.00000000E+00  8.00000000E+00
Current cartesian coordinates              R   N=          15
  2.91948818E+00  3.20121699E+00  5.62177433E-32  2.74737002E+00  1.37822583E+00
 -2.20186825E-32  8.62466082E-17  1.27261804E+00  1.68425912E-32 -4.83253002E-01
 -1.44139640E+00 -1.86268883E-32 -2.68945966E+00 -1.78977414E+00 -5.83907496E-32
Number of symbols in /Mol/                 I                0
Force Field                                I                0
Atom Types                                 C   N=           5
                                                            
Int Atom Types                             I   N=           5
           0           0           0           0           0
MM charges                                 R   N=           5
  0.00000000E+00  0.00000000E+00  0.00000000E+00  0.00000000E+00  0.00000000E+00
Integer atomic weights                     I   N=           5
           1          16          16          14          16
Real atomic weights                        R   N=           5
  1.00782504E+00  1.59949146E+01  1.59949146E+01  1.40030740E+01  1.59949146E+01
Atom fragment info                         I   N=           5
           0           0           0           0           0
Atom residue num                           I   N=           5
           0           0           0           0           0
Nuclear spins                              I   N=           5
           1           0           0           2           0
Nuclear ZEff                               R   N=           5
 -1.00000000E+00 -5.60000000E+00 -5.60000000E+00 -4.55000000E+00 -5.60000000E+00
Nuclear ZNuc                               R   N=           5
  1.00000000E+00  8.00000000E+00  8.00000000E+00  7.00000000E+00  8.00000000E+00
Nuclear QMom                               R   N=           5
  0.00000000E+00  0.00000000E+00  0.00000000E+00  2.04400000E+00  0.00000000E+00
Nuclear GFac                               R   N=           5
  2.79284600E+00  0.00000000E+00  0.00000000E+00  4.03761000E-01  0.00000000E+00
MicOpt                                     I   N=           5
          -1          -1          -1          -1          -1
Number of residues                         I                0
Number of secondary structures             I                0
SymInf integers                            I   N=          26
           1           2           1           1           1           1
           1          -1           0           0           0           0
           0           0           0           0           0           0
           0           0           0           0           0           0
           0           0
RotTr to input orientation                 R   N=          12
 -9.95572460E-01 -9.82575617E-17 -9.39972175E-02  9.39972175E-02 -7.30961654E-17
 -9.95572460E-01  9.09516862E-17 -1.00000000E+00  8.20084666E-17  2.60565653E+00
  0.00000000E+00  3.46146724E+00
Number of contracted shells                I               65
Number of primitive shells                 I              119
Pure/Cartesian d shells                    I                0
Pure/Cartesian f shells                    I                0
Highest angular momentum                   I                3
Largest degree of contraction              I                7
Shell types                                I   N=          65
           0           0           0           0           1           1
           1          -2          -2           0           0           0
           0           0           1           1           1           1
          -2          -2          -2          -3          -3           0
           0           0           0           0           1           1
           1           1          -2          -2          -2          -3
          -3           0           0           0           0           0
           1           1           1           1          -2          -2
          -2          -3          -3           0           0           0
           0           0           1           1           1           1
          -2          -2          -2          -3          -3
Number of primitives per shell             I   N=          65
           3           1           1           1           1           1
           1           1           1           7           6           1
           1           1           3           1           1           1
           1           1           1           1           1           7
           6           1           1           1           3           1
           1           1           1           1           1           1
           1           7           6           1           1           1
           3           1           1           1           1           1
           1           1           1           7           6           1
           1           1           3           1           1           1
           1           1           1           1           1
Shell to atom map                          I   N=          65
           1           1           1           1           1           1
           1           1           1           2           2           2
           2           2           2           2           2           2
           2           2           2           2           2           3
           3           3           3           3           3           3
           3           3           3           3           3           3
           3           4           4           4           4           4
           4           4           4           4           4           4
           4           4           4           5           5           5
           5           5           5           5           5           5
           5           5           5           5           5
Primitive exponents                        R   N=         119
  3.38700000E+01  5.09500000E+00  1.15900000E+00  3.25800000E-01  1.02700000E-01
  2.52600000E-02  1.40700000E+00  3.88000000E-01  1.02000000E-01  1.05700000E+00
  2.47000000E-01  1.53300000E+04  2.29900000E+03  5.22400000E+02  1.47300000E+02
  4.75500000E+01  1.67600000E+01  6.20700000E+00  5.22400000E+02  1.47300000E+02
  4.75500000E+01  1.67600000E+01  6.20700000E+00  6.88200000E-01  1.75200000E+00
  2.38400000E-01  7.37600000E-02  3.44600000E+01  7.74900000E+00  2.28000000E+00
  7.15600000E-01  2.14000000E-01  5.97400000E-02  2.31400000E+00  6.45000000E-01
  2.14000000E-01  1.42800000E+00  5.00000000E-01  1.53300000E+04  2.29900000E+03
  5.22400000E+02  1.47300000E+02  4.75500000E+01  1.67600000E+01  6.20700000E+00
  5.22400000E+02  1.47300000E+02  4.75500000E+01  1.67600000E+01  6.20700000E+00
  6.88200000E-01  1.75200000E+00  2.38400000E-01  7.37600000E-02  3.44600000E+01
  7.74900000E+00  2.28000000E+00  7.15600000E-01  2.14000000E-01  5.97400000E-02
  2.31400000E+00  6.45000000E-01  2.14000000E-01  1.42800000E+00  5.00000000E-01
  1.14200000E+04  1.71200000E+03  3.89300000E+02  1.10000000E+02  3.55700000E+01
  1.25400000E+01  4.64400000E+00  3.89300000E+02  1.10000000E+02  3.55700000E+01
  1.25400000E+01  4.64400000E+00  5.11800000E-01  1.29300000E+00  1.78700000E-01
  5.76000000E-02  2.66300000E+01  5.94800000E+00  1.74200000E+00  5.55000000E-01
  1.72500000E-01  4.91000000E-02  1.65400000E+00  4.69000000E-01  1.51000000E-01
  1.09300000E+00  3.64000000E-01  1.53300000E+04  2.29900000E+03  5.22400000E+02
  1.47300000E+02  4.75500000E+01  1.67600000E+01  6.20700000E+00  5.22400000E+02
  1.47300000E+02  4.75500000E+01  1.67600000E+01  6.20700000E+00  6.88200000E-01
  1.75200000E+00  2.38400000E-01  7.37600000E-02  3.44600000E+01  7.74900000E+00
  2.28000000E+00  7.15600000E-01  2.14000000E-01  5.97400000E-02  2.31400000E+00
  6.45000000E-01  2.14000000E-01  1.42800000E+00  5.00000000E-01
Contraction coefficients                   R   N=         119
  2.54948632E-02  1.90362766E-01  8.52162022E-01  1.00000000E+00  1.00000000E+00
  1.00000000E+00  1.00000000E+00  1.00000000E+00  1.00000000E+00  1.00000000E+00
  1.00000000E+00  5.19808943E-04  4.02025621E-03  2.07128267E-02  8.10105536E-02
  2.35962985E-01  4.42653446E-01  3.57064423E-01 -4.42115008E-05 -1.22591041E-03
 -1.05517725E-02 -6.74452633E-02 -1.71198607E-01  1.07329856E+00  1.00000000E+00
  1.00000000E+00  1.00000000E+00  4.11634896E-02  2.57762836E-01  8.02419274E-01
  1.00000000E+00  1.00000000E+00  1.00000000E+00  1.00000000E+00  1.00000000E+00
  1.00000000E+00  1.00000000E+00  1.00000000E+00  5.19808943E-04  4.02025621E-03
  2.07128267E-02  8.10105536E-02  2.35962985E-01  4.42653446E-01  3.57064423E-01
 -4.42115008E-05 -1.22591041E-03 -1.05517725E-02 -6.74452633E-02 -1.71198607E-01
  1.07329856E+00  1.00000000E+00  1.00000000E+00  1.00000000E+00  4.11634896E-02
  2.57762836E-01  8.02419274E-01  1.00000000E+00  1.00000000E+00  1.00000000E+00
  1.00000000E+00  1.00000000E+00  1.00000000E+00  1.00000000E+00  1.00000000E+00
  5.34563860E-04  4.13435660E-03  2.12335358E-02  8.25006224E-02  2.38138871E-01
  4.42551547E-01  3.53757422E-01 -4.89867350E-05 -1.19527323E-03 -1.03490714E-02
 -6.48680190E-02 -1.71552477E-01  1.07289568E+00  1.00000000E+00  1.00000000E+00
  1.00000000E+00  3.98072123E-02  2.49002660E-01  8.10479727E-01  1.00000000E+00
  1.00000000E+00  1.00000000E+00  1.00000000E+00  1.00000000E+00  1.00000000E+00
  1.00000000E+00  1.00000000E+00  5.19808943E-04  4.02025621E-03  2.07128267E-02
  8.10105536E-02  2.35962985E-01  4.42653446E-01  3.57064423E-01 -4.42115008E-05
 -1.22591041E-03 -1.05517725E-02 -6.74452633E-02 -1.71198607E-01  1.07329856E+00
  1.00000000E+00  1.00000000E+00  1.00000000E+00  4.11634896E-02  2.57762836E-01
  8.02419274E-01  1.00000000E+00  1.00000000E+00  1.00000000E+00  1.00000000E+00
  1.00000000E+00  1.00000000E+00  1.00000000E+00  1.00000000E+00
Coordinates of each shell                  R   N=         195
  2.91948818E+00  3.20121699E+00  6.68040778E-33  2.91948818E+00  3.20121699E+00
  6.68040778E-33  2.91948818E+00  3.20121699E+00  6.68040778E-33  2.91948818E+00
  3.20121699E+00  6.68040778E-33  2.91948818E+00  3.20121699E+00  6.68040778E-33
  2.91948818E+00  3.20121699E+00  6.68040778E-33  2.91948818E+00  3.20121699E+00
  6.68040778E-33  2.91948818E+00  3.20121699E+00  6.68040778E-33  2.91948818E+00
  3.20121699E+00  6.68040778E-33  2.74737002E+00  1.37822583E+00 -1.37681028E-32
  2.74737002E+00  1.37822583E+00 -1.37681028E-32  2.74737002E+00  1.37822583E+00
 -1.37681028E-32  2.74737002E+00  1.37822583E+00 -1.37681028E-32  2.74737002E+00
  1.37822583E+00 -1.37681028E-32  2.74737002E+00  1.37822583E+00 -1.37681028E-32
  2.74737002E+00  1.37822583E+00 -1.37681028E-32  2.74737002E+00  1.37822583E+00
 -1.37681028E-32  2.74737002E+00  1.37822583E+00 -1.37681028E-32  2.74737002E+00
  1.37822583E+00 -1.37681028E-32  2.74737002E+00  1.37822583E+00 -1.37681028E-32
  2.74737002E+00  1.37822583E+00 -1.37681028E-32  2.74737002E+00  1.37822583E+00
 -1.37681028E-32  2.74737002E+00  1.37822583E+00 -1.37681028E-32 -4.64464742E-20
  1.27261804E+00  1.56167770E-32 -4.64464742E-20  1.27261804E+00  1.56167770E-32
 -4.64464742E-20  1.27261804E+00  1.56167770E-32 -4.64464742E-20  1.27261804E+00
  1.56167770E-32 -4.64464742E-20  1.27261804E+00  1.56167770E-32 -4.64464742E-20
  1.27261804E+00  1.56167770E-32 -4.64464742E-20  1.27261804E+00  1.56167770E-32
 -4.64464742E-20  1.27261804E+00  1.56167770E-32 -4.64464742E-20  1.27261804E+00
  1.56167770E-32 -4.64464742E-20  1.27261804E+00  1.56167770E-32 -4.64464742E-20
  1.27261804E+00  1.56167770E-32 -4.64464742E-20  1.27261804E+00  1.56167770E-32
 -4.64464742E-20  1.27261804E+00  1.56167770E-32 -4.64464742E-20  1.27261804E+00
  1.56167770E-32 -4.83253002E-01 -1.44139640E+00 -1.22912664E-32 -4.83253002E-01
 -1.44139640E+00 -1.22912664E-32 -4.83253002E-01 -1.44139640E+00 -1.22912664E-32
 -4.83253002E-01 -1.44139640E+00 -1.22912664E-32 -4.83253002E-01 -1.44139640E+00
 -1.22912664E-32 -4.83253002E-01 -1.44139640E+00 -1.22912664E-32 -4.83253002E-01
 -1.44139640E+00 -1.22912664E-32 -4.83253002E-01 -1.44139640E+00 -1.22912664E-32
 -4.83253002E-01 -1.44139640E+00 -1.22912664E-32 -4.83253002E-01 -1.44139640E+00
 -1.22912664E-32 -4.83253002E-01 -1.44139640E+00 -1.22912664E-32 -4.83253002E-01
 -1.44139640E+00 -1.22912664E-32 -4.83253002E-01 -1.44139640E+00 -1.22912664E-32
 -4.83253002E-01 -1.44139640E+00 -1.22912664E-32 -2.68945966E+00 -1.78977414E+00
  8.07113294E-33 -2.68945966E+00 -1.78977414E+00  8.07113294E-33 -2.68945966E+00
 -1.78977414E+00  8.07113294E-33 -2.68945966E+00 -1.78977414E+00  8.07113294E-33
 -2.68945966E+00 -1.78977414E+00  8.07113294E-33 -2.68945966E+00 -1.78977414E+00
  8.07113294E-33 -2.68945966E+00 -1.78977414E+00  8.07113294E-33 -2.68945966E+00
 -1.78977414E+00  8.07113294E-33 -2.68945966E+00 -1.78977414E+00  8.07113294E-33
 -2.68945966E+00 -1.78977414E+00  8.07113294E-33 -2.68945966E+00 -1.78977414E+00
  8.07113294E-33 -2.68945966E+00 -1.78977414E+00  8.07113294E-33 -2.68945966E+00
 -1.78977414E+00  8.07113294E-33 -2.68945966E+00 -1.78977414E+00  8.07113294E-33
Num ILSW                                   I              100
ILSW                                       I   N=         100
           0           0           0           0           2           0
           0           0           0           0           0          -1
           5           0           0           0           0           0
           0           0           0           0           0           0
           1           0           0           0           0           0
           0           0      100000           0          -1           0
           0           0           0           0           0           0
           0           0           0           1           0           0
           0 -2000000000           1           0           0           0
           0           0           4          52           0           0
           0           0           0           0           0           0
           0           0           0           5           0           1
           0           0           0           0           0           0
           0           0           0           0           0           0
           0           0           0           0           0           0
           0           0           0           0           0           0
           0           0           0           0
Num RLSW                                   I               52
RLSW                                       R   N=          52
  1.00000000E+00  1.00000000E+00  1.00000000E+00  1.00000000E+00  1.00000000E+00
  0.00000000E+00  0.00000000E+00  1.00000000E+00  0.00000000E+00  0.00000000E+00
  0.00000000E+00  0.00000000E+00  1.00000000E+00  0.00000000E+00  0.00000000E+00
  0.00000000E+00  0.00000000E+00  1.00000000E+00  0.00000000E+00  0.00000000E+00
  0.00000000E+00  0.00000000E+00  1.00000000E+00  0.00000000E+00  0.00000000E+00
  0.00000000E+00  0.00000000E+00  1.00000000E+00  0.00000000E+00  0.00000000E+00
  0.00000000E+00  0.00000000E+00  1.00000000E+00  0.00000000E+00  0.00000000E+00
  0.00000000E+00  0.00000000E+00  0.00000000E+00  1.00000000E+00  1.00000000E+00
  0.00000000E+00  1.00000000E+00  0.00000000E+00  0.00000000E+00  0.00000000E+00
  0.00000000E+00  0.00000000E+00  0.00000000E+00  0.00000000E+00  0.00000000E+00
  0.00000000E+00  0.00000000E+00
MxBond                                     I                2
NBond                                      I   N=           5
           1           2           2           2           1
IBond                                      I   N=          10
           2           0           1           3           2           4
           3           5           4           0
RBond                                      R   N=          10
  1.00000000E+00  0.00000000E+00  1.00000000E+00  1.00000000E+00  1.00000000E+00
  1.00000000E+00  1.00000000E+00  2.00000000E+00  2.00000000E+00  0.00000000E+00
Virial Ratio                               R      2.002538507907967E+00
SCF Energy                                 R     -2.794995876129831E+02
MP2 Energy                                 R     -2.804465659418652E+02
Total Energy                               R     -2.804465659418652E+02
Post-SCF wavefunction norm                 R      1.121017163734418E+00
RMS Density                                R      4.099114397889350E-09
Job Status                                 I                1
Nuclear derivative order                   I                0
External E-field                           R   N=          35
  0.00000000E+00  0.00000000E+00  0.00000000E+00  0.00000000E+00  0.00000000E+00
  0.00000000E+00  0.00000000E+00  0.00000000E+00  0.00000000E+00  0.00000000E+00
  0.00000000E+00  0.00000000E+00  0.00000000E+00  0.00000000E+00  0.00000000E+00
  0.00000000E+00  0.00000000E+00  0.00000000E+00  0.00000000E+00  0.00000000E+00
  0.00000000E+00  0.00000000E+00  0.00000000E+00  0.00000000E+00  0.00000000E+00
  0.00000000E+00  0.00000000E+00  0.00000000E+00  0.00000000E+00  0.00000000E+00
  0.00000000E+00  0.00000000E+00  0.00000000E+00  0.00000000E+00  0.00000000E+00
IOpCl                                      I                0
IROHF                                      I                0
Alpha Orbital Energies                     R   N=         207
 -2.06934753E+01 -2.06838415E+01 -2.06613977E+01 -1.58144601E+01 -1.61521048E+00
 -1.49542711E+00 -1.25552379E+00 -9.49614246E-01 -7.71585734E-01 -7.56259408E-01
 -7.09714469E-01 -6.77953697E-01 -6.18076208E-01 -5.90124883E-01 -4.86122070E-01
 -4.74662298E-01  2.93258058E-02  6.82247249E-02  8.61200830E-02  1.01721194E-01
  1.33795124E-01  1.34165463E-01  1.43845380E-01  1.54258145E-01  1.78068185E-01
  1.94296182E-01  1.99407420E-01  2.06341944E-01  2.20430184E-01  2.34506181E-01
  2.37305664E-01  2.65921930E-01  2.92302016E-01  3.03444741E-01  3.09940839E-01
  3.43543970E-01  3.49353265E-01  3.86784796E-01  4.21464510E-01  4.31490921E-01
  5.27406058E-01  5.27549592E-01  5.57731845E-01  5.81379962E-01  6.19784773E-01
  6.38833311E-01  6.77911230E-01  6.83749516E-01  7.06296397E-01  7.10881471E-01
  7.23728343E-01  7.28745155E-01  7.44699721E-01  7.90942549E-01  7.91345526E-01
  8.10731376E-01  8.11680838E-01  8.27702632E-01  8.67276696E-01  9.07241298E-01
  9.20911989E-01  9.25268581E-01  9.56002556E-01  9.75096249E-01  9.83672633E-01
  1.01591551E+00  1.05127207E+00  1.05407989E+00  1.08025200E+00  1.11612839E+00
  1.14011656E+00  1.18882406E+00  1.21917250E+00  1.23101268E+00  1.33799872E+00
  1.34971830E+00  1.38443310E+00  1.45284616E+00  1.48721184E+00  1.50759611E+00
  1.53767606E+00  1.56691037E+00  1.57997801E+00  1.61240801E+00  1.66144999E+00
  1.66917346E+00  1.70363624E+00  1.79256865E+00  1.83220964E+00  1.83426096E+00
  1.87529321E+00  1.90994440E+00  1.95907384E+00  1.98926301E+00  2.00637395E+00
  2.07731061E+00  2.12061941E+00  2.13090425E+00  2.14871155E+00  2.22383139E+00
  2.26332281E+00  2.26399745E+00  2.28849603E+00  2.31298083E+00  2.34047641E+00
  2.38510396E+00  2.42189000E+00  2.42611721E+00  2.45393981E+00  2.46132214E+00
  2.47497690E+00  2.49900718E+00  2.58788559E+00  2.59444583E+00  2.61853033E+00
  2.62027526E+00  2.63308744E+00  2.66423497E+00  2.75308226E+00  2.81969579E+00
  2.85022180E+00  2.87897021E+00  2.89160280E+00  2.92013065E+00  2.95525740E+00
  3.02255830E+00  3.06982410E+00  3.11801522E+00  3.20359043E+00  3.22359062E+00
  3.31445033E+00  3.34005848E+00  3.51207655E+00  3.64230357E+00  3.83665883E+00
  3.84072366E+00  4.14727902E+00  4.16121493E+00  4.18191135E+00  4.23102275E+00
  4.35030021E+00  4.39143387E+00  4.46014460E+00  4.51689342E+00  4.64816522E+00
  4.70842988E+00  4.79886721E+00  4.82244834E+00  4.82643670E+00  4.89644499E+00
  5.02488853E+00  5.07647452E+00  5.09892051E+00  5.14907728E+00  5.17512577E+00
  5.23803285E+00  5.27106433E+00  5.30811953E+00  5.32762688E+00  5.34680912E+00
  5.60342014E+00  5.65529971E+00  5.75913159E+00  5.82431902E+00  5.96211311E+00
  6.16559547E+00  6.30654215E+00  6.33715592E+00  6.39274787E+00  6.49360732E+00
  6.50524394E+00  6.61207942E+00  6.66644757E+00  6.69494605E+00  6.75584692E+00
  6.76134029E+00  6.82575932E+00  6.89397106E+00  7.00975629E+00  7.05292726E+00
  7.05493330E+00  7.08835938E+00  7.11892395E+00  7.14665679E+00  7.17990595E+00
  7.21680399E+00  7.23902477E+00  7.30081355E+00  7.30113748E+00  7.34043898E+00
  7.39148025E+00  7.42944882E+00  7.48293942E+00  7.59793781E+00  7.60547862E+00
  7.61528685E+00  7.66276930E+00  7.77930195E+00  7.86851323E+00  8.08817089E+00
  8.31018535E+00  8.40778438E+00  8.54158342E+00  1.33669839E+01  1.43013277E+01
  1.51560963E+01  1.58236273E+01
Alpha MO coefficients                      R   N=       42849
  9.15099392E-05 -6.51383834E-04 -7.25443452E-04 -5.33402274E-06 -2.12836345E-05
 -2.65890902E-05  0.00000000E+00 -4.40427240E-05  6.22622368E-05  0.00000000E+00
  8.54049866E-05  3.51211958E-05  0.00000000E+00  3.17459551E-05  0.00000000E+00
  0.00000000E+00 -4.96252677E-05  2.09155440E-05 -6.24406925E-06  0.00000000E+00
  0.00000000E+00 -1.39180928E-04  1.17617769E-04  4.41627318E-03 -2.80734909E-04
  7.19084937E-06  1.56777693E-03  1.82228782E-03  1.06292355E-04  7.63863532E-06
  0.00000000E+00 -6.16989090E-04 -3.79104330E-05  0.00000000E+00 -1.10439001E-03
  8.01483026E-04  0.00000000E+00 -4.02246025E-04  6.40838213E-05  0.00000000E+00
  2.88298799E-05  0.00000000E+00  0.00000000E+00 -5.40016642E-05  5.21485874E-06
 -3.78551933E-04  0.00000000E+00  0.00000000E+00  7.39131147E-04 -2.52111189E-05
 -4.46885612E-04  0.00000000E+00  0.00000000E+00  2.40218899E-04 -1.74682029E-05
  0.00000000E+00  7.99677123E-05  1.30585448E-05  0.00000000E+00  0.00000000E+00
 -1.09403776E-04 -4.77324163E-06  0.00000000E+00  2.54324612E-04 -2.71560880E-05
  0.00000000E+00  0.00000000E+00 -3.54173158E-04  4.53377993E-05  9.76917335E-01
 -9.21366487E-03  4.33137144E-02  2.00622456E-03 -9.31582614E-04  1.49813009E-03
 -1.36562249E-03  0.00000000E+00 -1.43837374E-03  1.39464392E-03  0.00000000E+00
  8.13967150E-05 -1.16045624E-03  0.00000000E+00 -1.36881997E-04 -1.21655333E-05
  0.00000000E+00  4.65212973E-05  0.00000000E+00  0.00000000E+00 -3.46735960E-05
  2.04638408E-05  7.49614439E-04  0.00000000E+00  0.00000000E+00 -2.23486351E-04
 -3.92093545E-04 -3.59567795E-04  0.00000000E+00  0.00000000E+00 -3.12609305E-04
 -3.79343649E-04  0.00000000E+00  4.74613337E-05 -4.94319442E-05  0.00000000E+00
  0.00000000E+00 -3.89571179E-05 -1.66165042E-05  0.00000000E+00  2.35844359E-05
  2.25059835E-05  0.00000000E+00  0.00000000E+00 -3.03184281E-04 -1.44514459E-04
  4.05990354E-05  5.46158778E-05 -2.64726528E-04 -6.67698497E-04 -1.20842359E-04
 -2.72884662E-05 -9.87908725E-05  0.00000000E+00  2.61143506E-04  7.15039674E-04
  0.00000000E+00 -8.24620910E-04 -4.51171707E-04  0.00000000E+00 -1.23793369E-04
 -2.27656801E-05  0.00000000E+00 -1.82098906E-05  0.00000000E+00  0.00000000E+00
 -2.88838998E-05  1.47524997E-05 -3.31990414E-04  0.00000000E+00  0.00000000E+00
 -8.33919496E-04  1.23710709E-04 -3.98116750E-05  0.00000000E+00  0.00000000E+00
  9.07930672E-05 -1.16225603E-04  0.00000000E+00 -2.06068060E-05 -1.20709434E-04
  0.00000000E+00  0.00000000E+00 -6.16215128E-05 -1.40128198E-04  0.00000000E+00
  2.38589982E-06 -1.54966486E-04  0.00000000E+00  0.00000000E+00  4.59683871E-05
 -4.18935217E-04 -1.72693326E-03  1.12888909E-04 -8.66696825E-05 -2.47553249E-04
  1.18268703E-04 -5.76885730E-06 -2.78080378E-05  0.00000000E+00  6.49324034E-05
  1.63425685E-04  0.00000000E+00  2.15439352E-04  1.89531986E-04  0.00000000E+00
  1.22245467E-04  2.10022259E-05  0.00000000E+00 -3.73529687E-06  0.00000000E+00
  0.00000000E+00 -1.70793017E-05  7.71752992E-07  5.34903399E-07  0.00000000E+00
  0.00000000E+00  7.49317612E-05  9.05669940E-05 -9.64192342E-05  0.00000000E+00
  0.00000000E+00  1.61639238E-04  1.56556904E-04  0.00000000E+00  1.59245309E-05
 -4.09477788E-06  0.00000000E+00  0.00000000E+00 -5.45933214E-06 -1.15913428E-05
  0.00000000E+00 -3.31456028E-05  4.50848303E-05  0.00000000E+00  0.00000000E+00
  8.21600803E-05  9.12907003E-05  3.78458323E-05 -1.00129107E-03 -5.04346405E-04
 -1.32636747E-05 -2.24730004E-05  1.68402722E-05  0.00000000E+00 -2.75139432E-06
  2.79589559E-04  0.00000000E+00 -4.49542799E-05  1.38115217E-04  0.00000000E+00
  2.61041943E-05  0.00000000E+00  0.00000000E+00  1.30552965E-05  1.16668864E-05
 -2.72662204E-05  0.00000000E+00  0.00000000E+00  1.03760145E-05  3.65079320E-05
  1.14767302E-04  8.37045870E-05 -2.75968852E-05  7.51388827E-04  6.66088872E-04
  9.42214474E-06  2.81610731E-06  0.00000000E+00 -6.78543144E-05  1.55524411E-05
  0.00000000E+00  3.46636097E-04  9.01943442E-04  0.00000000E+00  7.14268418E-06
  8.76337910E-05  0.00000000E+00 -2.15035456E-06  0.00000000E+00  0.00000000E+00
  3.53458282E-07 -6.64565613E-06 -3.57242721E-05  0.00000000E+00  0.00000000E+00
 -2.69454192E-05  8.79403305E-05 -2.06215168E-05  0.00000000E+00  0.00000000E+00
 -2.71209202E-04 -1.56506825E-04  0.00000000E+00  9.22466288E-06  6.28819139E-06
  0.00000000E+00  0.00000000E+00  3.69391189E-06 -1.93422776E-05  0.00000000E+00
 -4.22716333E-05 -3.93339932E-05  0.00000000E+00  0.00000000E+00 -7.66184031E-05
  1.72115121E-05  1.76591460E-03  4.87822021E-05  5.19456886E-05 -6.40121660E-05
 -4.79271617E-04  7.01859927E-06  1.68445364E-05  0.00000000E+00 -6.51819591E-05
 -5.92527422E-05  0.00000000E+00  2.26517793E-04 -1.57423296E-04  0.00000000E+00
 -1.95554344E-04 -6.51134928E-05  0.00000000E+00 -8.74463566E-06  0.00000000E+00
  0.00000000E+00  2.09209261E-05  1.75876270E-05  2.30582242E-06  0.00000000E+00
  0.00000000E+00 -1.09245891E-04 -3.24857017E-05 -2.55002794E-06  0.00000000E+00
  0.00000000E+00 -2.11951832E-04 -1.83875870E-04  0.00000000E+00  3.69337796E-06
  2.30745475E-08  0.00000000E+00  0.00000000E+00  2.06161122E-06 -1.60307545E-05
  0.00000000E+00 -4.67390958E-05 -2.35969000E-07  0.00000000E+00  0.00000000E+00
 -6.60125713E-05  1.88943276E-04  2.55716885E-04  1.44444320E-03 -1.25860943E-04
 -1.31402054E-03  4.57693647E-04 -1.16453839E-04  4.67839576E-06  0.00000000E+00
 -2.12004898E-03 -4.25732833E-04  0.00000000E+00  9.25359017E-04  7.59750052E-04
  0.00000000E+00 -1.81258053E-04  5.45111070E-05  0.00000000E+00 -1.25795905E-04
  0.00000000E+00  0.00000000E+00  2.44631298E-04  9.51921023E-05 -4.72764915E-04
  0.00000000E+00  0.00000000E+00  9.55973664E-04 -2.25032005E-05 -3.81729656E-06
  0.00000000E+00  0.00000000E+00 -3.06359125E-04 -1.12117221E-04  0.00000000E+00
  1.63690271E-05  1.88243331E-05  0.00000000E+00  0.00000000E+00 -2.24975361E-06
  1.57537198E-06  0.00000000E+00  1.69811127E-04 -7.17939796E-05  0.00000000E+00
  0.00000000E+00 -2.67000299E-04  4.32653318E-05  9.76670044E-01 -9.85970716E-03
  4.35370486E-02  4.29638182E-03 -5.19123488E-04  2.13515692E-03  4.86930211E-04
  0.00000000E+00 -2.42878691E-03 -6.17416649E-04  0.00000000E+00  1.09359835E-03
 -1.27343823E-05  0.00000000E+00 -3.12615137E-06 -4.54341260E-05  0.00000000E+00
 -2.24680594E-04  0.00000000E+00  0.00000000E+00  8.94962248E-05  2.81035157E-05
  3.97580843E-04  0.00000000E+00  0.00000000E+00 -8.49068692E-04 -4.29423634E-04
 -1.63425840E-04  0.00000000E+00  0.00000000E+00  2.69275286E-04  1.89106935E-05
  0.00000000E+00  5.85044936E-05  1.86117999E-05  0.00000000E+00  0.00000000E+00
 -2.96389552E-05 -1.68936948E-05  0.00000000E+00  1.31273759E-04  8.70614809E-06
  0.00000000E+00  0.00000000E+00 -1.85246183E-04 -1.40313293E-04  4.74753788E-04
  2.05833407E-03  1.12764667E-04  1.54731077E-05 -4.02694448E-05 -2.46913775E-04
  0.00000000E+00  1.16902487E-04 -1.27398408E-03  0.00000000E+00  3.14247245E-04
 -3.35804544E-04  0.00000000E+00 -2.68086034E-06  0.00000000E+00  0.00000000E+00
  7.58426979E-05  1.61872761E-05 -1.60035253E-04  0.00000000E+00  0.00000000E+00
 -5.37314019E-04 -2.83571241E-05  9.76831242E-01 -9.16314388E-03  4.34493168E-02
  1.62196664E-04 -1.14057793E-03 -1.56979925E-03  1.43643370E-03  0.00000000E+00
  1.58094503E-03 -1.27888564E-03  0.00000000E+00 -5.64874257E-04 -8.65196185E-04
  0.00000000E+00  5.48920975E-05 -3.42266470E-05  0.00000000E+00  2.97163566E-05
  0.00000000E+00  0.00000000E+00 -1.18268936E-04 -3.99466340E-06  7.57794966E-04
  0.00000000E+00  0.00000000E+00 -2.01301743E-04 -2.36940944E-04 -2.66614317E-04
  0.00000000E+00  0.00000000E+00  1.67435282E-04  1.28589367E-04  0.00000000E+00
 -6.42197364E-05  1.06009813E-06  0.00000000E+00  0.00000000E+00  1.88193324E-05
  1.00709549E-05  0.00000000E+00 -1.65492226E-06  1.22641001E-04  0.00000000E+00
  0.00000000E+00  2.55909629E-04  9.45503596E-05 -4.50858792E-03 -2.12900483E-04