title                                                                   
SP        RMP2-FC                                                     Aug-CC-pVTZ         
Number of atoms                            I                5
Info1-9                                    I   N=           9
          33          24           0           0           0         110
           1           2           1
Full Title                                 C   N=           1
title       
Route                                      C   N=           4
#p SP mp2/aug-cc-pvtz density=current           
Charge                                     I                0
Multiplicity                               I                1
Number of electrons                        I               32
Number of alpha electrons                  I               16
Number of beta electrons                   I               16
Number of basis functions                  I              207
Number of independent functions            I              207
Number of point charges in /Mol/           I                0
Number of translation vectors              I                0
Atomic numbers                             I   N=           5
           1           8           8           7           8
Nuclear charges                            R   N=           5
  1.00000000E+00  8.00000000E+00  8.00000000E+00  7.00000000E+00  8.00000000E+00
Current cartesian coordinates              R   N=          15
  2.92465924E+00  3.16284909E+00  1.63215478E-30  2.74777514E+00  1.36711391E+00
  9.17188330E-31  1.16897309E-16  1.27263217E+00  7.55758911E-31 -4.94239144E-01
 -1.43940314E+00 -9.76876456E-32 -2.68089829E+00 -1.77562447E+00 -6.80113929E-31
Number of symbols in /Mol/                 I                0
Force Field                                I                0
Atom Types                                 C   N=           5
                                                            
Int Atom Types                             I   N=           5
           0           0           0           0           0
MM charges                                 R   N=           5
  0.00000000E+00  0.00000000E+00  0.00000000E+00  0.00000000E+00  0.00000000E+00
Integer atomic weights                     I   N=           5
           1          16          16          14          16
Real atomic weights                        R   N=           5
  1.00782504E+00  1.59949146E+01  1.59949146E+01  1.40030740E+01  1.59949146E+01
Atom fragment info                         I   N=           5
           0           0           0           0           0
Atom residue num                           I   N=           5
           0           0           0           0           0
Nuclear spins                              I   N=           5
           1           0           0           2           0
Nuclear ZEff                               R   N=           5
 -1.00000000E+00 -5.60000000E+00 -5.60000000E+00 -4.55000000E+00 -5.60000000E+00
Nuclear ZNuc                               R   N=           5
  1.00000000E+00  8.00000000E+00  8.00000000E+00  7.00000000E+00  8.00000000E+00
Nuclear QMom                               R   N=           5
  0.00000000E+00  0.00000000E+00  0.00000000E+00  2.04400000E+00  0.00000000E+00
Nuclear GFac                               R   N=           5
  2.79284600E+00  0.00000000E+00  0.00000000E+00  4.03761000E-01  0.00000000E+00
MicOpt                                     I   N=           5
          -1          -1          -1          -1          -1
Number of residues                         I                0
Number of secondary structures             I                0
SymInf integers                            I   N=          26
           1           2           1           1           1           1
           1          -1           0           0           0           0
           0           0           0           0           0           0
           0           0           0           0           0           0
           0           0
RotTr to input orientation                 R   N=          12
 -9.95183666E-01  6.67502711E-16 -9.80279084E-02  9.80279084E-02 -9.21294414E-16
 -9.95183666E-01 -7.54600359E-16 -1.00000000E+00  8.51423258E-16  2.60052562E+00
  0.00000000E+00  3.43431398E+00
Number of contracted shells                I               65
Number of primitive shells                 I              119
Pure/Cartesian d shells                    I                0
Pure/Cartesian f shells                    I                0
Highest angular momentum                   I                3
Largest degree of contraction              I                7
Shell types                                I   N=          65
           0           0           0           0           1           1
           1          -2          -2           0           0           0
           0           0           1           1           1           1
          -2          -2          -2          -3          -3           0
           0           0           0           0           1           1
           1           1          -2          -2          -2          -3
          -3           0           0           0           0           0
           1           1           1           1          -2          -2
          -2          -3          -3           0           0           0
           0           0           1           1           1           1
          -2          -2          -2          -3          -3
Number of primitives per shell             I   N=          65
           3           1           1           1           1           1
           1           1           1           7           6           1
           1           1           3           1           1           1
           1           1           1           1           1           7
           6           1           1           1           3           1
           1           1           1           1           1           1
           1           7           6           1           1           1
           3           1           1           1           1           1
           1           1           1           7           6           1
           1           1           3           1           1           1
           1           1           1           1           1
Shell to atom map                          I   N=          65
           1           1           1           1           1           1
           1           1           1           2           2           2
           2           2           2           2           2           2
           2           2           2           2           2           3
           3           3           3           3           3           3
           3           3           3           3           3           3
           3           4           4           4           4           4
           4           4           4           4           4           4
           4           4           4           5           5           5
           5           5           5           5           5           5
           5           5           5           5           5
Primitive exponents                        R   N=         119
  3.38700000E+01  5.09500000E+00  1.15900000E+00  3.25800000E-01  1.02700000E-01
  2.52600000E-02  1.40700000E+00  3.88000000E-01  1.02000000E-01  1.05700000E+00
  2.47000000E-01  1.53300000E+04  2.29900000E+03  5.22400000E+02  1.47300000E+02
  4.75500000E+01  1.67600000E+01  6.20700000E+00  5.22400000E+02  1.47300000E+02
  4.75500000E+01  1.67600000E+01  6.20700000E+00  6.88200000E-01  1.75200000E+00
  2.38400000E-01  7.37600000E-02  3.44600000E+01  7.74900000E+00  2.28000000E+00
  7.15600000E-01  2.14000000E-01  5.97400000E-02  2.31400000E+00  6.45000000E-01
  2.14000000E-01  1.42800000E+00  5.00000000E-01  1.53300000E+04  2.29900000E+03
  5.22400000E+02  1.47300000E+02  4.75500000E+01  1.67600000E+01  6.20700000E+00
  5.22400000E+02  1.47300000E+02  4.75500000E+01  1.67600000E+01  6.20700000E+00
  6.88200000E-01  1.75200000E+00  2.38400000E-01  7.37600000E-02  3.44600000E+01
  7.74900000E+00  2.28000000E+00  7.15600000E-01  2.14000000E-01  5.97400000E-02
  2.31400000E+00  6.45000000E-01  2.14000000E-01  1.42800000E+00  5.00000000E-01
  1.14200000E+04  1.71200000E+03  3.89300000E+02  1.10000000E+02  3.55700000E+01
  1.25400000E+01  4.64400000E+00  3.89300000E+02  1.10000000E+02  3.55700000E+01
  1.25400000E+01  4.64400000E+00  5.11800000E-01  1.29300000E+00  1.78700000E-01
  5.76000000E-02  2.66300000E+01  5.94800000E+00  1.74200000E+00  5.55000000E-01
  1.72500000E-01  4.91000000E-02  1.65400000E+00  4.69000000E-01  1.51000000E-01
  1.09300000E+00  3.64000000E-01  1.53300000E+04  2.29900000E+03  5.22400000E+02
  1.47300000E+02  4.75500000E+01  1.67600000E+01  6.20700000E+00  5.22400000E+02
  1.47300000E+02  4.75500000E+01  1.67600000E+01  6.20700000E+00  6.88200000E-01
  1.75200000E+00  2.38400000E-01  7.37600000E-02  3.44600000E+01  7.74900000E+00
  2.28000000E+00  7.15600000E-01  2.14000000E-01  5.97400000E-02  2.31400000E+00
  6.45000000E-01  2.14000000E-01  1.42800000E+00  5.00000000E-01
Contraction coefficients                   R   N=         119
  2.54948632E-02  1.90362766E-01  8.52162022E-01  1.00000000E+00  1.00000000E+00
  1.00000000E+00  1.00000000E+00  1.00000000E+00  1.00000000E+00  1.00000000E+00
  1.00000000E+00  5.19808943E-04  4.02025621E-03  2.07128267E-02  8.10105536E-02
  2.35962985E-01  4.42653446E-01  3.57064423E-01 -4.42115008E-05 -1.22591041E-03
 -1.05517725E-02 -6.74452633E-02 -1.71198607E-01  1.07329856E+00  1.00000000E+00
  1.00000000E+00  1.00000000E+00  4.11634896E-02  2.57762836E-01  8.02419274E-01
  1.00000000E+00  1.00000000E+00  1.00000000E+00  1.00000000E+00  1.00000000E+00
  1.00000000E+00  1.00000000E+00  1.00000000E+00  5.19808943E-04  4.02025621E-03
  2.07128267E-02  8.10105536E-02  2.35962985E-01  4.42653446E-01  3.57064423E-01
 -4.42115008E-05 -1.22591041E-03 -1.05517725E-02 -6.74452633E-02 -1.71198607E-01
  1.07329856E+00  1.00000000E+00  1.00000000E+00  1.00000000E+00  4.11634896E-02
  2.57762836E-01  8.02419274E-01  1.00000000E+00  1.00000000E+00  1.00000000E+00
  1.00000000E+00  1.00000000E+00  1.00000000E+00  1.00000000E+00  1.00000000E+00
  5.34563860E-04  4.13435660E-03  2.12335358E-02  8.25006224E-02  2.38138871E-01
  4.42551547E-01  3.53757422E-01 -4.89867350E-05 -1.19527323E-03 -1.03490714E-02
 -6.48680190E-02 -1.71552477E-01  1.07289568E+00  1.00000000E+00  1.00000000E+00
  1.00000000E+00  3.98072123E-02  2.49002660E-01  8.10479727E-01  1.00000000E+00
  1.00000000E+00  1.00000000E+00  1.00000000E+00  1.00000000E+00  1.00000000E+00
  1.00000000E+00  1.00000000E+00  5.19808943E-04  4.02025621E-03  2.07128267E-02
  8.10105536E-02  2.35962985E-01  4.42653446E-01  3.57064423E-01 -4.42115008E-05
 -1.22591041E-03 -1.05517725E-02 -6.74452633E-02 -1.71198607E-01  1.07329856E+00
  1.00000000E+00  1.00000000E+00  1.00000000E+00  4.11634896E-02  2.57762836E-01
  8.02419274E-01  1.00000000E+00  1.00000000E+00  1.00000000E+00  1.00000000E+00
  1.00000000E+00  1.00000000E+00  1.00000000E+00  1.00000000E+00
Coordinates of each shell                  R   N=         195
  2.92465924E+00  3.16284909E+00  4.96230590E-31  2.92465924E+00  3.16284909E+00
  4.96230590E-31  2.92465924E+00  3.16284909E+00  4.96230590E-31  2.92465924E+00
  3.16284909E+00  4.96230590E-31  2.92465924E+00  3.16284909E+00  4.96230590E-31
  2.92465924E+00  3.16284909E+00  4.96230590E-31  2.92465924E+00  3.16284909E+00
  4.96230590E-31  2.92465924E+00  3.16284909E+00  4.96230590E-31  2.92465924E+00
  3.16284909E+00  4.96230590E-31  2.74777514E+00  1.36711391E+00  3.09150915E-31
  2.74777514E+00  1.36711391E+00  3.09150915E-31  2.74777514E+00  1.36711391E+00
  3.09150915E-31  2.74777514E+00  1.36711391E+00  3.09150915E-31  2.74777514E+00
  1.36711391E+00  3.09150915E-31  2.74777514E+00  1.36711391E+00  3.09150915E-31
  2.74777514E+00  1.36711391E+00  3.09150915E-31  2.74777514E+00  1.36711391E+00
  3.09150915E-31  2.74777514E+00  1.36711391E+00  3.09150915E-31  2.74777514E+00
  1.36711391E+00  3.09150915E-31  2.74777514E+00  1.36711391E+00  3.09150915E-31
  2.74777514E+00  1.36711391E+00  3.09150915E-31  2.74777514E+00  1.36711391E+00
  3.09150915E-31  2.74777514E+00  1.36711391E+00  3.09150915E-31 -1.23759683E-17
  1.27263217E+00  1.24584609E-31 -1.23759683E-17  1.27263217E+00  1.24584609E-31
 -1.23759683E-17  1.27263217E+00  1.24584609E-31 -1.23759683E-17  1.27263217E+00
  1.24584609E-31 -1.23759683E-17  1.27263217E+00  1.24584609E-31 -1.23759683E-17
  1.27263217E+00  1.24584609E-31 -1.23759683E-17  1.27263217E+00  1.24584609E-31
 -1.23759683E-17  1.27263217E+00  1.24584609E-31 -1.23759683E-17  1.27263217E+00
  1.24584609E-31 -1.23759683E-17  1.27263217E+00  1.24584609E-31 -1.23759683E-17
  1.27263217E+00  1.24584609E-31 -1.23759683E-17  1.27263217E+00  1.24584609E-31
 -1.23759683E-17  1.27263217E+00  1.24584609E-31 -1.23759683E-17  1.27263217E+00
  1.24584609E-31 -4.94239144E-01 -1.43940314E+00 -1.72444756E-31 -4.94239144E-01
 -1.43940314E+00 -1.72444756E-31 -4.94239144E-01 -1.43940314E+00 -1.72444756E-31
 -4.94239144E-01 -1.43940314E+00 -1.72444756E-31 -4.94239144E-01 -1.43940314E+00
 -1.72444756E-31 -4.94239144E-01 -1.43940314E+00 -1.72444756E-31 -4.94239144E-01
 -1.43940314E+00 -1.72444756E-31 -4.94239144E-01 -1.43940314E+00 -1.72444756E-31
 -4.94239144E-01 -1.43940314E+00 -1.72444756E-31 -4.94239144E-01 -1.43940314E+00
 -1.72444756E-31 -4.94239144E-01 -1.43940314E+00 -1.72444756E-31 -4.94239144E-01
 -1.43940314E+00 -1.72444756E-31 -4.94239144E-01 -1.43940314E+00 -1.72444756E-31
 -4.94239144E-01 -1.43940314E+00 -1.72444756E-31 -2.68089829E+00 -1.77562447E+00
 -3.44875186E-31 -2.68089829E+00 -1.77562447E+00 -3.44875186E-31 -2.68089829E+00
 -1.77562447E+00 -3.44875186E-31 -2.68089829E+00 -1.77562447E+00 -3.44875186E-31
 -2.68089829E+00 -1.77562447E+00 -3.44875186E-31 -2.68089829E+00 -1.77562447E+00
 -3.44875186E-31 -2.68089829E+00 -1.77562447E+00 -3.44875186E-31 -2.68089829E+00
 -1.77562447E+00 -3.44875186E-31 -2.68089829E+00 -1.77562447E+00 -3.44875186E-31
 -2.68089829E+00 -1.77562447E+00 -3.44875186E-31 -2.68089829E+00 -1.77562447E+00
 -3.44875186E-31 -2.68089829E+00 -1.77562447E+00 -3.44875186E-31 -2.68089829E+00
 -1.77562447E+00 -3.44875186E-31 -2.68089829E+00 -1.77562447E+00 -3.44875186E-31
Num ILSW                                   I              100
ILSW                                       I   N=         100
           0           0           0           0           2           0
           0           0           0           0           0          -1
           5           0           0           0           0           0
           0           0           0           0           0           0
           1           0           0           0           0           0
           0           0      100000           0          -1           0
           0           0           0           0           0           0
           0           0           0           1           0           0
           0 -2000000000           1           0           0           0
           0           0           4          52           0           0
           0           0           0           0           0           0
           0           0           0           5           0           1
           0           0           0           0           0           0
           0           0           0           0           0           0
           0           0           0           0           0           0
           0           0           0           0           0           0
           0           0           0           0
Num RLSW                                   I               52
RLSW                                       R   N=          52
  1.00000000E+00  1.00000000E+00  1.00000000E+00  1.00000000E+00  1.00000000E+00
  0.00000000E+00  0.00000000E+00  1.00000000E+00  0.00000000E+00  0.00000000E+00
  0.00000000E+00  0.00000000E+00  1.00000000E+00  0.00000000E+00  0.00000000E+00
  0.00000000E+00  0.00000000E+00  1.00000000E+00  0.00000000E+00  0.00000000E+00
  0.00000000E+00  0.00000000E+00  1.00000000E+00  0.00000000E+00  0.00000000E+00
  0.00000000E+00  0.00000000E+00  1.00000000E+00  0.00000000E+00  0.00000000E+00
  0.00000000E+00  0.00000000E+00  1.00000000E+00  0.00000000E+00  0.00000000E+00
  0.00000000E+00  0.00000000E+00  0.00000000E+00  1.00000000E+00  1.00000000E+00
  0.00000000E+00  1.00000000E+00  0.00000000E+00  0.00000000E+00  0.00000000E+00
  0.00000000E+00  0.00000000E+00  0.00000000E+00  0.00000000E+00  0.00000000E+00
  0.00000000E+00  0.00000000E+00
MxBond                                     I                2
NBond                                      I   N=           5
           1           2           2           2           1
IBond                                      I   N=          10
           2           0           1           3           2           4
           3           5           4           0
RBond                                      R   N=          10
  1.00000000E+00  0.00000000E+00  1.00000000E+00  1.00000000E+00  1.00000000E+00
  1.00000000E+00  1.00000000E+00  2.00000000E+00  2.00000000E+00  0.00000000E+00
Virial Ratio                               R      2.002257909199414E+00
SCF Energy                                 R     -2.795021724495159E+02
MP2 Energy                                 R     -2.804465465506628E+02
Total Energy                               R     -2.804465465506628E+02
Post-SCF wavefunction norm                 R      1.119980098893714E+00
RMS Density                                R      3.787511276237022E-09
Job Status                                 I                1
Nuclear derivative order                   I                0
External E-field                           R   N=          35
  0.00000000E+00  0.00000000E+00  0.00000000E+00  0.00000000E+00  0.00000000E+00
  0.00000000E+00  0.00000000E+00  0.00000000E+00  0.00000000E+00  0.00000000E+00
  0.00000000E+00  0.00000000E+00  0.00000000E+00  0.00000000E+00  0.00000000E+00
  0.00000000E+00  0.00000000E+00  0.00000000E+00  0.00000000E+00  0.00000000E+00
  0.00000000E+00  0.00000000E+00  0.00000000E+00  0.00000000E+00  0.00000000E+00
  0.00000000E+00  0.00000000E+00  0.00000000E+00  0.00000000E+00  0.00000000E+00
  0.00000000E+00  0.00000000E+00  0.00000000E+00  0.00000000E+00  0.00000000E+00
IOpCl                                      I                0
IROHF                                      I                0
Alpha Orbital Energies                     R   N=         207
 -2.06912665E+01 -2.06845702E+01 -2.06588626E+01 -1.58131282E+01 -1.62436391E+00
 -1.49753008E+00 -1.25721260E+00 -9.48396643E-01 -7.74009518E-01 -7.60296372E-01
 -7.12129114E-01 -6.81502996E-01 -6.20882655E-01 -5.90105703E-01 -4.85713559E-01
 -4.72887826E-01  2.98897693E-02  7.14548334E-02  8.58808440E-02  1.01679563E-01
  1.33851215E-01  1.33921711E-01  1.44639345E-01  1.55071577E-01  1.78049770E-01
  1.94136046E-01  1.99760535E-01  2.06370093E-01  2.20764646E-01  2.35027948E-01
  2.37246581E-01  2.66378715E-01  2.93683695E-01  3.04534904E-01  3.11000918E-01
  3.43312845E-01  3.48964678E-01  3.87389692E-01  4.23573030E-01  4.33720107E-01
  5.27225446E-01  5.29059471E-01  5.58454589E-01  5.81420381E-01  6.25782853E-01
  6.38260838E-01  6.74279371E-01  6.85754856E-01  7.06332647E-01  7.11668297E-01
  7.25298407E-01  7.29482766E-01  7.44956268E-01  7.91168990E-01  7.92248703E-01
  8.10535026E-01  8.12557640E-01  8.30781727E-01  8.68026450E-01  9.07965627E-01
  9.22677383E-01  9.26526780E-01  9.57749085E-01  9.75816197E-01  9.86528009E-01
  1.01944659E+00  1.05132990E+00  1.05488429E+00  1.08363538E+00  1.11986643E+00
  1.14286323E+00  1.18900506E+00  1.22163690E+00  1.23539331E+00  1.33841951E+00
  1.34971705E+00  1.38600809E+00  1.45744769E+00  1.49168920E+00  1.51139678E+00
  1.53763510E+00  1.56698756E+00  1.57886017E+00  1.61495366E+00  1.66285124E+00
  1.66897460E+00  1.70340068E+00  1.79351586E+00  1.83175133E+00  1.83439196E+00
  1.87782574E+00  1.91146935E+00  1.96338890E+00  1.99266855E+00  2.00863687E+00
  2.07785931E+00  2.12259557E+00  2.13183514E+00  2.14988627E+00  2.22518848E+00
  2.26305097E+00  2.26557318E+00  2.28960418E+00  2.31579532E+00  2.34478160E+00
  2.38900217E+00  2.42453602E+00  2.42999935E+00  2.45407684E+00  2.46306141E+00
  2.47742364E+00  2.50229014E+00  2.58411319E+00  2.59714638E+00  2.62031086E+00
  2.62648060E+00  2.63413206E+00  2.66556307E+00  2.75746964E+00  2.82035574E+00
  2.85626805E+00  2.88493373E+00  2.89361181E+00  2.92551019E+00  2.95765165E+00
  3.02745646E+00  3.06908498E+00  3.11978576E+00  3.20425068E+00  3.22780569E+00
  3.31864374E+00  3.34309687E+00  3.51645107E+00  3.64879999E+00  3.83862195E+00
  3.86005129E+00  4.16146404E+00  4.16785848E+00  4.18709312E+00  4.25901157E+00
  4.36391527E+00  4.39621369E+00  4.46802556E+00  4.52440467E+00  4.66329896E+00
  4.71603351E+00  4.80657870E+00  4.82410357E+00  4.85265054E+00  4.89601748E+00
  5.02318872E+00  5.07754901E+00  5.11526965E+00  5.15293170E+00  5.18697665E+00
  5.26389298E+00  5.27579834E+00  5.31166699E+00  5.35909207E+00  5.36465285E+00
  5.61394344E+00  5.67362049E+00  5.77345923E+00  5.83689894E+00  5.95901089E+00
  6.16562080E+00  6.30907705E+00  6.33621100E+00  6.39806636E+00  6.49358736E+00
  6.50541552E+00  6.61604008E+00  6.66665809E+00  6.69976757E+00  6.75700886E+00
  6.76306770E+00  6.83303450E+00  6.89820068E+00  7.02162324E+00  7.05754892E+00
  7.05924897E+00  7.09148941E+00  7.12712456E+00  7.15279614E+00  7.18147263E+00
  7.22863601E+00  7.26736481E+00  7.32118821E+00  7.32592697E+00  7.35254829E+00
  7.39875439E+00  7.43401061E+00  7.48442977E+00  7.60898992E+00  7.62093257E+00
  7.62976919E+00  7.67051103E+00  7.80630495E+00  7.88743621E+00  8.09885974E+00
  8.31864258E+00  8.42735416E+00  8.54942056E+00  1.33948031E+01  1.44064118E+01
  1.53739618E+01  1.61523974E+01
Alpha MO coefficients                      R   N=       42849
  9.35380737E-05 -6.43926889E-04 -7.36991795E-04 -4.97302936E-06 -2.01263325E-05
 -2.56840119E-05  0.00000000E+00 -7.41670633E-05  4.53767878E-05  0.00000000E+00
  6.60626945E-05  3.06710434E-05  0.00000000E+00  3.22243022E-05  0.00000000E+00
  0.00000000E+00 -5.11721406E-05  2.42425266E-05 -7.72967351E-06  0.00000000E+00
  0.00000000E+00 -1.41634502E-04  1.34717936E-04  4.36580716E-03 -2.85524772E-04
  4.51728367E-06  1.55365482E-03  1.84091295E-03  1.06531415E-04  7.27734346E-06
  0.00000000E+00 -6.17190678E-04 -4.24872322E-05  0.00000000E+00 -1.06254729E-03
  8.04086294E-04  0.00000000E+00 -3.96881436E-04  7.63726739E-05  0.00000000E+00
  2.93296865E-05  0.00000000E+00  0.00000000E+00 -5.41783647E-05  4.93689662E-06
 -3.79685829E-04  0.00000000E+00  0.00000000E+00  7.45353456E-04 -2.53820364E-05
 -4.46683811E-04  0.00000000E+00  0.00000000E+00  2.41310876E-04 -2.91111547E-06
  0.00000000E+00  8.05409951E-05  1.28608934E-05  0.00000000E+00  0.00000000E+00
 -1.09385158E-04 -3.05026666E-06  0.00000000E+00  2.52631762E-04 -2.91370549E-05
  0.00000000E+00  0.00000000E+00 -3.60352177E-04  5.33334522E-05  9.76912060E-01
 -9.21734608E-03  4.33190753E-02  2.04545173E-03 -9.23339870E-04  1.49560060E-03
 -1.35454873E-03  0.00000000E+00 -1.43888598E-03  1.38325948E-03  0.00000000E+00
  8.20872142E-05 -1.16325297E-03  0.00000000E+00 -1.48076674E-04 -2.54327919E-05
  0.00000000E+00  4.63270669E-05  0.00000000E+00  0.00000000E+00 -3.52528516E-05
  2.16322783E-05  7.47944914E-04  0.00000000E+00  0.00000000E+00 -2.35109457E-04
 -3.89942985E-04 -3.59158649E-04  0.00000000E+00  0.00000000E+00 -3.14005084E-04
 -3.74552122E-04  0.00000000E+00  4.74635583E-05 -4.91085732E-05  0.00000000E+00
  0.00000000E+00 -3.91695801E-05 -1.56543324E-05  0.00000000E+00  2.42562859E-05
  2.27420509E-05  0.00000000E+00  0.00000000E+00 -3.06103497E-04 -1.40633211E-04
  3.90001866E-05  4.57077906E-05 -2.64117406E-04 -6.97933020E-04 -1.39940103E-04
 -2.67094544E-05 -9.73519165E-05  0.00000000E+00  2.65821551E-04  7.07926928E-04
  0.00000000E+00 -8.32549930E-04 -4.74797199E-04  0.00000000E+00 -1.18955250E-04
 -2.55897174E-05  0.00000000E+00 -1.81521278E-05  0.00000000E+00  0.00000000E+00
 -2.95512646E-05  1.49198986E-05 -3.28698150E-04  0.00000000E+00  0.00000000E+00
 -8.26875894E-04  1.27390437E-04 -3.77321420E-05  0.00000000E+00  0.00000000E+00
  9.79939542E-05 -1.15142142E-04  0.00000000E+00 -2.02518704E-05 -1.19813023E-04
  0.00000000E+00  0.00000000E+00 -6.26885675E-05 -1.38214135E-04  0.00000000E+00
  1.30655982E-06 -1.53562845E-04  0.00000000E+00  0.00000000E+00  4.33918043E-05
 -4.15221898E-04 -2.53145819E-03  1.22206923E-04 -1.21139137E-04 -2.48482736E-04
  1.28104745E-04 -7.70548451E-06 -2.75371355E-05  0.00000000E+00  6.81252940E-05
  1.62370820E-04  0.00000000E+00  2.29849547E-04  1.97499349E-04  0.00000000E+00
  1.24372074E-04  2.04262388E-05  0.00000000E+00 -3.29504014E-06  0.00000000E+00
  0.00000000E+00 -1.78617156E-05  1.32062976E-06  9.26977289E-07  0.00000000E+00
  0.00000000E+00  7.93209205E-05  8.66492418E-05 -9.94991789E-05  0.00000000E+00
  0.00000000E+00  1.65638630E-04  1.60356089E-04  0.00000000E+00  1.59777142E-05
 -3.53315222E-06  0.00000000E+00  0.00000000E+00 -4.42079062E-06 -1.19707430E-05
  0.00000000E+00 -3.36371206E-05  4.54376165E-05  0.00000000E+00  0.00000000E+00
  8.32120207E-05  8.97359902E-05  3.84042706E-05 -1.01953991E-03 -5.10266087E-04
 -1.14103020E-05 -2.25429597E-05  1.76283006E-05  0.00000000E+00 -2.80801538E-06
  2.74426246E-04  0.00000000E+00 -4.32487852E-05  1.36502101E-04  0.00000000E+00
  2.62909023E-05  0.00000000E+00  0.00000000E+00  1.18401125E-05  1.08962639E-05
 -2.90450327E-05  0.00000000E+00  0.00000000E+00  1.04016196E-05  3.68807353E-05
  1.07428571E-04  8.63554539E-05 -2.78040038E-05  7.83371324E-04  6.74662232E-04
  1.02267337E-05  2.51899721E-06  0.00000000E+00 -7.20636074E-05  1.89875304E-05
  0.00000000E+00  3.38539751E-04  9.19231914E-04  0.00000000E+00  2.45489886E-06
  8.38180496E-05  0.00000000E+00 -2.33619482E-06  0.00000000E+00  0.00000000E+00
 -4.07588484E-07 -6.09099229E-06 -3.63326865E-05  0.00000000E+00  0.00000000E+00
 -1.93446289E-05  8.49266458E-05 -2.37554998E-05  0.00000000E+00  0.00000000E+00
 -2.70105994E-04 -1.62857129E-04  0.00000000E+00  9.16272867E-06  5.96545780E-06
  0.00000000E+00  0.00000000E+00  2.54726078E-06 -1.86220878E-05  0.00000000E+00
 -4.04834980E-05 -3.80100072E-05  0.00000000E+00  0.00000000E+00 -7.74342494E-05
  2.09697932E-05  2.57047217E-03  3.94563870E-05  8.94004361E-05 -6.94789707E-05
 -4.70471127E-04  7.32185799E-06  1.58842764E-05  0.00000000E+00 -6.27967510E-05
 -5.57745219E-05  0.00000000E+00  2.33952299E-04 -1.90000944E-04  0.00000000E+00
 -1.89314422E-04 -6.54320033E-05  0.00000000E+00 -8.71470240E-06  0.00000000E+00
  0.00000000E+00  2.24020392E-05  1.98187520E-05  4.52677886E-06  0.00000000E+00
  0.00000000E+00 -1.17735507E-04 -4.67844408E-05 -4.08412937E-06  0.00000000E+00
  0.00000000E+00 -2.23130451E-04 -2.07234965E-04  0.00000000E+00  3.30669741E-06
 -5.30891638E-07  0.00000000E+00  0.00000000E+00  1.72023030E-06 -1.36414368E-05
  0.00000000E+00 -4.65764531E-05  3.45236483E-06  0.00000000E+00  0.00000000E+00
 -7.66844982E-05  1.88025751E-04  2.58704659E-04  1.46526934E-03 -7.79718572E-05
 -1.53916610E-03  3.92951511E-04 -1.44417048E-04  1.53884315E-07  0.00000000E+00
 -2.09048128E-03 -4.04320938E-04  0.00000000E+00  1.04007073E-03  7.62663259E-04
  0.00000000E+00 -1.71568698E-04  5.34896792E-05  0.00000000E+00 -1.23352000E-04
  0.00000000E+00  0.00000000E+00  2.43126420E-04  9.40768028E-05 -4.42439340E-04
  0.00000000E+00  0.00000000E+00  8.99173031E-04 -6.61172597E-05  1.15889783E-05
  0.00000000E+00  0.00000000E+00 -3.38264089E-04 -1.22635978E-04  0.00000000E+00
 -1.23643553E-06  1.53001261E-05  0.00000000E+00  0.00000000E+00  1.88282458E-05
  1.32710700E-05  0.00000000E+00  1.64479346E-04 -7.18948235E-05  0.00000000E+00
  0.00000000E+00 -2.40504327E-04  4.26075975E-05  9.76649506E-01 -9.84825678E-03
  4.35679528E-02  4.50141948E-03 -4.45067321E-04  2.14827323E-03  4.81241908E-04
  0.00000000E+00 -2.38428499E-03 -6.04318671E-04  0.00000000E+00  1.13892566E-03
 -3.07829395E-06  0.00000000E+00  5.14298098E-06 -4.14880924E-05  0.00000000E+00
 -2.32370024E-04  0.00000000E+00  0.00000000E+00  1.02754805E-04  3.18587862E-05
  3.90698378E-04  0.00000000E+00  0.00000000E+00 -8.34202066E-04 -4.19489653E-04
 -1.53430546E-04  0.00000000E+00  0.00000000E+00  2.55599994E-04  1.70975635E-05
  0.00000000E+00  5.22734894E-05  1.77154667E-05  0.00000000E+00  0.00000000E+00
 -2.21303325E-05 -1.32938988E-05  0.00000000E+00  1.38435744E-04  9.23730127E-06
  0.00000000E+00  0.00000000E+00 -1.89885962E-04 -1.40740004E-04  5.04516052E-04
  1.72322407E-03 -9.56284038E-05  5.94126473E-06 -4.01878848E-05 -2.01790573E-04
  0.00000000E+00  1.27045631E-04 -1.11027249E-03  0.00000000E+00  3.18911404E-04
 -2.79293510E-04  0.00000000E+00  2.77919895E-05  0.00000000E+00  0.00000000E+00
  1.30017713E-04  9.08026620E-06 -1.51575035E-04  0.00000000E+00  0.00000000E+00
 -5.24779410E-04 -2.32527481E-05  9.76824974E-01 -9.11761470E-03  4.34651053E-02
  4.42327247E-04 -9.60539613E-04 -1.56081431E-03  1.44418509E-03  0.00000000E+00
  1.58520591E-03 -1.18002373E-03  0.00000000E+00 -5.18707071E-04 -6.70444767E-04
  0.00000000E+00  4.53740557E-05 -8.58351561E-06  0.00000000E+00  2.12897417E-05
  0.00000000E+00  0.00000000E+00 -1.30642440E-04 -1.39375111E-06  7.34119755E-04
  0.00000000E+00  0.00000000E+00 -2.46517860E-04 -2.21191010E-04 -2.83924228E-04
  0.00000000E+00  0.00000000E+00  1.26224548E-04  1.33669194E-04  0.00000000E+00
 -6.52037097E-05 -7.97515997E-06  0.00000000E+00  0.00000000E+00  1.43083966E-05
 -2.77189237E-06  0.00000000E+00 -3.62726279E-06  1.23798748E-04  0.00000000E+00
  0.00000000E+00  2.55443414E-04  9.24186682E-05 -4.45970367E-03 -2.17856468E-04