title                                                                   
SP        RMP2-FC                                                     Aug-CC-pVTZ         
Number of atoms                            I                5
Info1-9                                    I   N=           9
          33          24           0           0           0         110
           1           2           1
Full Title                                 C   N=           1
title       
Route                                      C   N=           4
#p SP mp2/aug-cc-pvtz density=current           
Charge                                     I                0
Multiplicity                               I                1
Number of electrons                        I               32
Number of alpha electrons                  I               16
Number of beta electrons                   I               16
Number of basis functions                  I              207
Number of independent functions            I              207
Number of point charges in /Mol/           I                0
Number of translation vectors              I                0
Atomic numbers                             I   N=           5
           1           8           8           7           8
Nuclear charges                            R   N=           5
  1.00000000E+00  8.00000000E+00  8.00000000E+00  7.00000000E+00  8.00000000E+00
Current cartesian coordinates              R   N=          15
  2.87609882E+00  3.21046331E+00  1.03605729E-31  2.71098115E+00  1.38682474E+00
  9.57127804E-32  4.60887846E-17  1.27219015E+00  1.56220611E-32 -4.72829205E-01
 -1.44365970E+00  9.59376510E-33 -2.65676795E+00 -1.79712057E+00 -9.92008418E-32
Number of symbols in /Mol/                 I                0
Force Field                                I                0
Atom Types                                 C   N=           5
                                                            
Int Atom Types                             I   N=           5
           0           0           0           0           0
MM charges                                 R   N=           5
  0.00000000E+00  0.00000000E+00  0.00000000E+00  0.00000000E+00  0.00000000E+00
Integer atomic weights                     I   N=           5
           1          16          16          14          16
Real atomic weights                        R   N=           5
  1.00782504E+00  1.59949146E+01  1.59949146E+01  1.40030740E+01  1.59949146E+01
Atom fragment info                         I   N=           5
           0           0           0           0           0
Atom residue num                           I   N=           5
           0           0           0           0           0
Nuclear spins                              I   N=           5
           1           0           0           2           0
Nuclear ZEff                               R   N=           5
 -1.00000000E+00 -5.60000000E+00 -5.60000000E+00 -4.55000000E+00 -5.60000000E+00
Nuclear ZNuc                               R   N=           5
  1.00000000E+00  8.00000000E+00  8.00000000E+00  7.00000000E+00  8.00000000E+00
Nuclear QMom                               R   N=           5
  0.00000000E+00  0.00000000E+00  0.00000000E+00  2.04400000E+00  0.00000000E+00
Nuclear GFac                               R   N=           5
  2.79284600E+00  0.00000000E+00  0.00000000E+00  4.03761000E-01  0.00000000E+00
MicOpt                                     I   N=           5
          -1          -1          -1          -1          -1
Number of residues                         I                0
Number of secondary structures             I                0
SymInf integers                            I   N=          26
           1           2           1           1           1           1
           1          -1           0           0           0           0
           0           0           0           0           0           0
           0           0           0           0           0           0
           0           0
RotTr to input orientation                 R   N=          12
 -9.95926017E-01 -9.75641685E-17 -9.01741063E-02  9.01741063E-02 -7.40191249E-17
 -9.95926017E-01  9.04920853E-17 -1.00000000E+00  8.25153339E-17  2.57488098E+00
  0.00000000E+00  3.45673358E+00
Number of contracted shells                I               65
Number of primitive shells                 I              119
Pure/Cartesian d shells                    I                0
Pure/Cartesian f shells                    I                0
Highest angular momentum                   I                3
Largest degree of contraction              I                7
Shell types                                I   N=          65
           0           0           0           0           1           1
           1          -2          -2           0           0           0
           0           0           1           1           1           1
          -2          -2          -2          -3          -3           0
           0           0           0           0           1           1
           1           1          -2          -2          -2          -3
          -3           0           0           0           0           0
           1           1           1           1          -2          -2
          -2          -3          -3           0           0           0
           0           0           1           1           1           1
          -2          -2          -2          -3          -3
Number of primitives per shell             I   N=          65
           3           1           1           1           1           1
           1           1           1           7           6           1
           1           1           3           1           1           1
           1           1           1           1           1           7
           6           1           1           1           3           1
           1           1           1           1           1           1
           1           7           6           1           1           1
           3           1           1           1           1           1
           1           1           1           7           6           1
           1           1           3           1           1           1
           1           1           1           1           1
Shell to atom map                          I   N=          65
           1           1           1           1           1           1
           1           1           1           2           2           2
           2           2           2           2           2           2
           2           2           2           2           2           3
           3           3           3           3           3           3
           3           3           3           3           3           3
           3           4           4           4           4           4
           4           4           4           4           4           4
           4           4           4           5           5           5
           5           5           5           5           5           5
           5           5           5           5           5
Primitive exponents                        R   N=         119
  3.38700000E+01  5.09500000E+00  1.15900000E+00  3.25800000E-01  1.02700000E-01
  2.52600000E-02  1.40700000E+00  3.88000000E-01  1.02000000E-01  1.05700000E+00
  2.47000000E-01  1.53300000E+04  2.29900000E+03  5.22400000E+02  1.47300000E+02
  4.75500000E+01  1.67600000E+01  6.20700000E+00  5.22400000E+02  1.47300000E+02
  4.75500000E+01  1.67600000E+01  6.20700000E+00  6.88200000E-01  1.75200000E+00
  2.38400000E-01  7.37600000E-02  3.44600000E+01  7.74900000E+00  2.28000000E+00
  7.15600000E-01  2.14000000E-01  5.97400000E-02  2.31400000E+00  6.45000000E-01
  2.14000000E-01  1.42800000E+00  5.00000000E-01  1.53300000E+04  2.29900000E+03
  5.22400000E+02  1.47300000E+02  4.75500000E+01  1.67600000E+01  6.20700000E+00
  5.22400000E+02  1.47300000E+02  4.75500000E+01  1.67600000E+01  6.20700000E+00
  6.88200000E-01  1.75200000E+00  2.38400000E-01  7.37600000E-02  3.44600000E+01
  7.74900000E+00  2.28000000E+00  7.15600000E-01  2.14000000E-01  5.97400000E-02
  2.31400000E+00  6.45000000E-01  2.14000000E-01  1.42800000E+00  5.00000000E-01
  1.14200000E+04  1.71200000E+03  3.89300000E+02  1.10000000E+02  3.55700000E+01
  1.25400000E+01  4.64400000E+00  3.89300000E+02  1.10000000E+02  3.55700000E+01
  1.25400000E+01  4.64400000E+00  5.11800000E-01  1.29300000E+00  1.78700000E-01
  5.76000000E-02  2.66300000E+01  5.94800000E+00  1.74200000E+00  5.55000000E-01
  1.72500000E-01  4.91000000E-02  1.65400000E+00  4.69000000E-01  1.51000000E-01
  1.09300000E+00  3.64000000E-01  1.53300000E+04  2.29900000E+03  5.22400000E+02
  1.47300000E+02  4.75500000E+01  1.67600000E+01  6.20700000E+00  5.22400000E+02
  1.47300000E+02  4.75500000E+01  1.67600000E+01  6.20700000E+00  6.88200000E-01
  1.75200000E+00  2.38400000E-01  7.37600000E-02  3.44600000E+01  7.74900000E+00
  2.28000000E+00  7.15600000E-01  2.14000000E-01  5.97400000E-02  2.31400000E+00
  6.45000000E-01  2.14000000E-01  1.42800000E+00  5.00000000E-01
Contraction coefficients                   R   N=         119
  2.54948632E-02  1.90362766E-01  8.52162022E-01  1.00000000E+00  1.00000000E+00
  1.00000000E+00  1.00000000E+00  1.00000000E+00  1.00000000E+00  1.00000000E+00
  1.00000000E+00  5.19808943E-04  4.02025621E-03  2.07128267E-02  8.10105536E-02
  2.35962985E-01  4.42653446E-01  3.57064423E-01 -4.42115008E-05 -1.22591041E-03
 -1.05517725E-02 -6.74452633E-02 -1.71198607E-01  1.07329856E+00  1.00000000E+00
  1.00000000E+00  1.00000000E+00  4.11634896E-02  2.57762836E-01  8.02419274E-01
  1.00000000E+00  1.00000000E+00  1.00000000E+00  1.00000000E+00  1.00000000E+00
  1.00000000E+00  1.00000000E+00  1.00000000E+00  5.19808943E-04  4.02025621E-03
  2.07128267E-02  8.10105536E-02  2.35962985E-01  4.42653446E-01  3.57064423E-01
 -4.42115008E-05 -1.22591041E-03 -1.05517725E-02 -6.74452633E-02 -1.71198607E-01
  1.07329856E+00  1.00000000E+00  1.00000000E+00  1.00000000E+00  4.11634896E-02
  2.57762836E-01  8.02419274E-01  1.00000000E+00  1.00000000E+00  1.00000000E+00
  1.00000000E+00  1.00000000E+00  1.00000000E+00  1.00000000E+00  1.00000000E+00
  5.34563860E-04  4.13435660E-03  2.12335358E-02  8.25006224E-02  2.38138871E-01
  4.42551547E-01  3.53757422E-01 -4.89867350E-05 -1.19527323E-03 -1.03490714E-02
 -6.48680190E-02 -1.71552477E-01  1.07289568E+00  1.00000000E+00  1.00000000E+00
  1.00000000E+00  3.98072123E-02  2.49002660E-01  8.10479727E-01  1.00000000E+00
  1.00000000E+00  1.00000000E+00  1.00000000E+00  1.00000000E+00  1.00000000E+00
  1.00000000E+00  1.00000000E+00  5.19808943E-04  4.02025621E-03  2.07128267E-02
  8.10105536E-02  2.35962985E-01  4.42653446E-01  3.57064423E-01 -4.42115008E-05
 -1.22591041E-03 -1.05517725E-02 -6.74452633E-02 -1.71198607E-01  1.07329856E+00
  1.00000000E+00  1.00000000E+00  1.00000000E+00  4.11634896E-02  2.57762836E-01
  8.02419274E-01  1.00000000E+00  1.00000000E+00  1.00000000E+00  1.00000000E+00
  1.00000000E+00  1.00000000E+00  1.00000000E+00  1.00000000E+00
Coordinates of each shell                  R   N=         195
  2.87609882E+00  3.21046331E+00  7.80581858E-32  2.87609882E+00  3.21046331E+00
  7.80581858E-32  2.87609882E+00  3.21046331E+00  7.80581858E-32  2.87609882E+00
  3.21046331E+00  7.80581858E-32  2.87609882E+00  3.21046331E+00  7.80581858E-32
  2.87609882E+00  3.21046331E+00  7.80581858E-32  2.87609882E+00  3.21046331E+00
  7.80581858E-32  2.87609882E+00  3.21046331E+00  7.80581858E-32  2.87609882E+00
  3.21046331E+00  7.80581858E-32  2.71098115E+00  1.38682474E+00  5.34529228E-32
  2.71098115E+00  1.38682474E+00  5.34529228E-32  2.71098115E+00  1.38682474E+00
  5.34529228E-32  2.71098115E+00  1.38682474E+00  5.34529228E-32  2.71098115E+00
  1.38682474E+00  5.34529228E-32  2.71098115E+00  1.38682474E+00  5.34529228E-32
  2.71098115E+00  1.38682474E+00  5.34529228E-32  2.71098115E+00  1.38682474E+00
  5.34529228E-32  2.71098115E+00  1.38682474E+00  5.34529228E-32  2.71098115E+00
  1.38682474E+00  5.34529228E-32  2.71098115E+00  1.38682474E+00  5.34529228E-32
  2.71098115E+00  1.38682474E+00  5.34529228E-32  2.71098115E+00  1.38682474E+00
  5.34529228E-32  2.71098115E+00  1.38682474E+00  5.34529228E-32  1.35016662E-17
  1.27219015E+00  1.56170703E-32  1.35016662E-17  1.27219015E+00  1.56170703E-32
  1.35016662E-17  1.27219015E+00  1.56170703E-32  1.35016662E-17  1.27219015E+00
  1.56170703E-32  1.35016662E-17  1.27219015E+00  1.56170703E-32  1.35016662E-17
  1.27219015E+00  1.56170703E-32  1.35016662E-17  1.27219015E+00  1.56170703E-32
  1.35016662E-17  1.27219015E+00  1.56170703E-32  1.35016662E-17  1.27219015E+00
  1.56170703E-32  1.35016662E-17  1.27219015E+00  1.56170703E-32  1.35016662E-17
  1.27219015E+00  1.56170703E-32  1.35016662E-17  1.27219015E+00  1.56170703E-32
  1.35016662E-17  1.27219015E+00  1.56170703E-32  1.35016662E-17  1.27219015E+00
  1.56170703E-32 -4.72829205E-01 -1.44365970E+00 -2.40755962E-32 -4.72829205E-01
 -1.44365970E+00 -2.40755962E-32 -4.72829205E-01 -1.44365970E+00 -2.40755962E-32
 -4.72829205E-01 -1.44365970E+00 -2.40755962E-32 -4.72829205E-01 -1.44365970E+00
 -2.40755962E-32 -4.72829205E-01 -1.44365970E+00 -2.40755962E-32 -4.72829205E-01
 -1.44365970E+00 -2.40755962E-32 -4.72829205E-01 -1.44365970E+00 -2.40755962E-32
 -4.72829205E-01 -1.44365970E+00 -2.40755962E-32 -4.72829205E-01 -1.44365970E+00
 -2.40755962E-32 -4.72829205E-01 -1.44365970E+00 -2.40755962E-32 -4.72829205E-01
 -1.44365970E+00 -2.40755962E-32 -4.72829205E-01 -1.44365970E+00 -2.40755962E-32
 -4.72829205E-01 -1.44365970E+00 -2.40755962E-32 -2.65676795E+00 -1.79712057E+00
 -5.77611196E-32 -2.65676795E+00 -1.79712057E+00 -5.77611196E-32 -2.65676795E+00
 -1.79712057E+00 -5.77611196E-32 -2.65676795E+00 -1.79712057E+00 -5.77611196E-32
 -2.65676795E+00 -1.79712057E+00 -5.77611196E-32 -2.65676795E+00 -1.79712057E+00
 -5.77611196E-32 -2.65676795E+00 -1.79712057E+00 -5.77611196E-32 -2.65676795E+00
 -1.79712057E+00 -5.77611196E-32 -2.65676795E+00 -1.79712057E+00 -5.77611196E-32
 -2.65676795E+00 -1.79712057E+00 -5.77611196E-32 -2.65676795E+00 -1.79712057E+00
 -5.77611196E-32 -2.65676795E+00 -1.79712057E+00 -5.77611196E-32 -2.65676795E+00
 -1.79712057E+00 -5.77611196E-32 -2.65676795E+00 -1.79712057E+00 -5.77611196E-32
Num ILSW                                   I              100
ILSW                                       I   N=         100
           0           0           0           0           2           0
           0           0           0           0           0          -1
           5           0           0           0           0           0
           0           0           0           0           0           0
           1           0           0           0           0           0
           0           0      100000           0          -1           0
           0           0           0           0           0           0
           0           0           0           1           0           0
           0 -2000000000           1           0           0           0
           0           0           4          52           0           0
           0           0           0           0           0           0
           0           0           0           5           0           1
           0           0           0           0           0           0
           0           0           0           0           0           0
           0           0           0           0           0           0
           0           0           0           0           0           0
           0           0           0           0
Num RLSW                                   I               52
RLSW                                       R   N=          52
  1.00000000E+00  1.00000000E+00  1.00000000E+00  1.00000000E+00  1.00000000E+00
  0.00000000E+00  0.00000000E+00  1.00000000E+00  0.00000000E+00  0.00000000E+00
  0.00000000E+00  0.00000000E+00  1.00000000E+00  0.00000000E+00  0.00000000E+00
  0.00000000E+00  0.00000000E+00  1.00000000E+00  0.00000000E+00  0.00000000E+00
  0.00000000E+00  0.00000000E+00  1.00000000E+00  0.00000000E+00  0.00000000E+00
  0.00000000E+00  0.00000000E+00  1.00000000E+00  0.00000000E+00  0.00000000E+00
  0.00000000E+00  0.00000000E+00  1.00000000E+00  0.00000000E+00  0.00000000E+00
  0.00000000E+00  0.00000000E+00  0.00000000E+00  1.00000000E+00  1.00000000E+00
  0.00000000E+00  1.00000000E+00  0.00000000E+00  0.00000000E+00  0.00000000E+00
  0.00000000E+00  0.00000000E+00  0.00000000E+00  0.00000000E+00  0.00000000E+00
  0.00000000E+00  0.00000000E+00
MxBond                                     I                2
NBond                                      I   N=           5
           1           2           2           2           1
IBond                                      I   N=          10
           2           0           1           3           2           4
           3           5           4           0
RBond                                      R   N=          10
  1.00000000E+00  0.00000000E+00  1.00000000E+00  1.00000000E+00  1.00000000E+00
  1.00000000E+00  1.00000000E+00  2.00000000E+00  2.00000000E+00  0.00000000E+00
Virial Ratio                               R      2.002236704290102E+00
SCF Energy                                 R     -2.795030505366236E+02
MP2 Energy                                 R     -2.804465544788918E+02
Total Energy                               R     -2.804465544788918E+02
Post-SCF wavefunction norm                 R      1.119460139171936E+00
RMS Density                                R      3.619498558179923E-09
Job Status                                 I                1
Nuclear derivative order                   I                0
External E-field                           R   N=          35
  0.00000000E+00  0.00000000E+00  0.00000000E+00  0.00000000E+00  0.00000000E+00
  0.00000000E+00  0.00000000E+00  0.00000000E+00  0.00000000E+00  0.00000000E+00
  0.00000000E+00  0.00000000E+00  0.00000000E+00  0.00000000E+00  0.00000000E+00
  0.00000000E+00  0.00000000E+00  0.00000000E+00  0.00000000E+00  0.00000000E+00
  0.00000000E+00  0.00000000E+00  0.00000000E+00  0.00000000E+00  0.00000000E+00
  0.00000000E+00  0.00000000E+00  0.00000000E+00  0.00000000E+00  0.00000000E+00
  0.00000000E+00  0.00000000E+00  0.00000000E+00  0.00000000E+00  0.00000000E+00
IOpCl                                      I                0
IROHF                                      I                0
Alpha Orbital Energies                     R   N=         207
 -2.06897907E+01 -2.06839505E+01 -2.06583354E+01 -1.58124342E+01 -1.62468493E+00
 -1.50347763E+00 -1.25098132E+00 -9.48339086E-01 -7.74886282E-01 -7.60759592E-01
 -7.13629408E-01 -6.79467770E-01 -6.22277174E-01 -5.91916481E-01 -4.81728552E-01
 -4.72034052E-01  2.96562855E-02  7.17014435E-02  8.63799923E-02  1.01788137E-01
  1.33938995E-01  1.34760158E-01  1.44180370E-01  1.54613714E-01  1.78207105E-01
  1.93997615E-01  1.99731262E-01  2.06520801E-01  2.22369128E-01  2.37536130E-01
  2.44398276E-01  2.66235970E-01  2.93593260E-01  3.04038578E-01  3.10944240E-01
  3.44727312E-01  3.50485141E-01  3.87618118E-01  4.23042900E-01  4.31965842E-01
  5.27649634E-01  5.29656863E-01  5.58817485E-01  5.82167164E-01  6.26322192E-01
  6.38160480E-01  6.74372938E-01  6.84211908E-01  7.07933917E-01  7.10593756E-01
  7.25149450E-01  7.28925493E-01  7.44504912E-01  7.92224465E-01  7.92896519E-01
  8.10316694E-01  8.13056501E-01  8.31976403E-01  8.68435340E-01  9.10202379E-01
  9.22304222E-01  9.27937471E-01  9.55813737E-01  9.78500853E-01  9.85858700E-01
  1.01655093E+00  1.05329935E+00  1.05440202E+00  1.08420613E+00  1.11973135E+00
  1.14405727E+00  1.19081514E+00  1.22075539E+00  1.23405741E+00  1.33931734E+00
  1.35156833E+00  1.38641520E+00  1.45410172E+00  1.48749325E+00  1.50758581E+00
  1.53912993E+00  1.56844061E+00  1.58093867E+00  1.61441966E+00  1.66603961E+00
  1.67217609E+00  1.70360908E+00  1.79536600E+00  1.83273276E+00  1.83512360E+00
  1.88025097E+00  1.91174125E+00  1.95632972E+00  1.99453833E+00  2.00385809E+00
  2.07875725E+00  2.12452581E+00  2.13234702E+00  2.15468906E+00  2.22537718E+00
  2.26614699E+00  2.26849708E+00  2.29072727E+00  2.31650466E+00  2.34961687E+00
  2.38388210E+00  2.42737798E+00  2.43171083E+00  2.45540989E+00  2.46259956E+00
  2.47913218E+00  2.50353274E+00  2.59188352E+00  2.59879712E+00  2.62370422E+00
  2.62945958E+00  2.64032733E+00  2.67551414E+00  2.75881465E+00  2.82578758E+00
  2.86095932E+00  2.89376519E+00  2.90278595E+00  2.93046080E+00  2.96260814E+00
  3.03654125E+00  3.06798694E+00  3.11763975E+00  3.22286492E+00  3.24079100E+00
  3.32266823E+00  3.33463473E+00  3.52459171E+00  3.64677684E+00  3.83864386E+00
  3.84903812E+00  4.15223920E+00  4.16986562E+00  4.18659370E+00  4.26001210E+00
  4.35652513E+00  4.39749188E+00  4.48267448E+00  4.51655581E+00  4.66482286E+00
  4.72069054E+00  4.80641650E+00  4.82249070E+00  4.83103894E+00  4.89743515E+00
  5.02482871E+00  5.07823777E+00  5.10694894E+00  5.14454351E+00  5.17992851E+00
  5.24518715E+00  5.27241694E+00  5.30881219E+00  5.33238709E+00  5.36000076E+00
  5.61684555E+00  5.67396840E+00  5.77497946E+00  5.85918224E+00  5.96649256E+00
  6.17326285E+00  6.27922321E+00  6.34126004E+00  6.39025649E+00  6.49230711E+00
  6.50514232E+00  6.60828912E+00  6.65577743E+00  6.69726526E+00  6.75625979E+00
  6.77259852E+00  6.83301580E+00  6.90020295E+00  7.02924812E+00  7.06891208E+00
  7.07788328E+00  7.10650633E+00  7.12770802E+00  7.16495464E+00  7.18941548E+00
  7.23008629E+00  7.24901879E+00  7.30945280E+00  7.32579311E+00  7.34807996E+00
  7.40409300E+00  7.45570419E+00  7.48657192E+00  7.62170206E+00  7.62485217E+00
  7.63554769E+00  7.67244919E+00  7.80925188E+00  7.89201794E+00  8.12371158E+00
  8.33865738E+00  8.42752075E+00  8.54750035E+00  1.34497133E+01  1.44192188E+01
  1.51888945E+01  1.61550706E+01
Alpha MO coefficients                      R   N=       42849
  8.60359405E-05 -6.22079296E-04 -6.90135066E-04 -1.26930879E-07 -1.57966354E-05
 -2.54959693E-05  0.00000000E+00 -3.70854929E-05  3.39731300E-05  0.00000000E+00
  8.29753879E-05  1.97612446E-05  0.00000000E+00  2.75653335E-05  0.00000000E+00
  0.00000000E+00 -5.26287813E-05  1.82507819E-05 -1.07770773E-05  0.00000000E+00
  0.00000000E+00 -1.46453041E-04  1.17015113E-04  4.75373433E-03 -2.54927477E-04
  1.42613462E-06  1.71180839E-03  1.92634179E-03  1.14302158E-04  8.83768981E-06
  0.00000000E+00 -7.10729621E-04 -4.97800397E-05  0.00000000E+00 -1.24105196E-03
  7.71311255E-04  0.00000000E+00 -4.28520201E-04  5.41774963E-05  0.00000000E+00
  2.36516051E-05  0.00000000E+00  0.00000000E+00 -4.42345318E-05  5.50341070E-06
 -4.00304913E-04  0.00000000E+00  0.00000000E+00  7.82250421E-04 -2.05684642E-05
 -4.62743135E-04  0.00000000E+00  0.00000000E+00  2.57482802E-04 -8.90289378E-06
  0.00000000E+00  8.50373221E-05  1.33551413E-05  0.00000000E+00  0.00000000E+00
 -1.16323526E-04 -6.21734121E-06  0.00000000E+00  2.55142938E-04 -2.46295982E-05
  0.00000000E+00  0.00000000E+00 -3.46884863E-04  3.19684383E-05  9.76894851E-01
 -9.22168162E-03  4.33524635E-02  1.83354621E-03 -1.03008756E-03  1.54965573E-03
 -1.33763434E-03  0.00000000E+00 -1.51777618E-03  1.36190310E-03  0.00000000E+00
 -2.28468140E-05 -1.16722623E-03  0.00000000E+00 -1.61053702E-04 -1.55447599E-05
  0.00000000E+00  4.16841903E-05  0.00000000E+00  0.00000000E+00 -2.73035860E-05
  2.16363197E-05  7.70651659E-04  0.00000000E+00  0.00000000E+00 -2.69015378E-04
 -3.99942428E-04 -3.43146283E-04  0.00000000E+00  0.00000000E+00 -3.36985810E-04
 -3.86735138E-04  0.00000000E+00  5.11407286E-05 -4.74919190E-05  0.00000000E+00
  0.00000000E+00 -4.23372486E-05 -1.76680615E-05  0.00000000E+00  3.46799023E-05
  2.06058616E-05  0.00000000E+00  0.00000000E+00 -3.20487725E-04 -1.43812574E-04
  3.89796575E-05  4.61822233E-05 -2.62435248E-04 -7.23001355E-04 -1.72332758E-04
 -2.54632010E-05 -9.74452788E-05  0.00000000E+00  2.62008899E-04  7.13315418E-04
  0.00000000E+00 -8.28893535E-04 -4.69476506E-04  0.00000000E+00 -1.23557341E-04
 -3.02187983E-05  0.00000000E+00 -1.78259450E-05  0.00000000E+00  0.00000000E+00
 -2.99615409E-05  1.56319587E-05 -3.26893588E-04  0.00000000E+00  0.00000000E+00
 -8.29720805E-04  9.87237461E-05 -3.17589959E-05  0.00000000E+00  0.00000000E+00
  9.14895711E-05 -1.29640771E-04  0.00000000E+00 -1.94426179E-05 -1.19736369E-04
  0.00000000E+00  0.00000000E+00 -5.77521906E-05 -1.37985217E-04  0.00000000E+00
  4.62690094E-06 -1.53491409E-04  0.00000000E+00  0.00000000E+00  5.91194920E-05
 -4.11345453E-04 -2.92379854E-03  1.27229384E-04 -1.38296789E-04 -2.24924113E-04
  1.55230140E-04 -8.59261259E-06 -2.72170890E-05  0.00000000E+00  7.14511335E-05
  1.60056939E-04  0.00000000E+00  2.38171723E-04  1.87872168E-04  0.00000000E+00
  1.31972290E-04  2.35788814E-05  0.00000000E+00 -3.40782769E-06  0.00000000E+00
  0.00000000E+00 -1.80131790E-05  1.31357115E-06  1.20148392E-06  0.00000000E+00
  0.00000000E+00  8.18692314E-05  8.44568923E-05 -9.95008805E-05  0.00000000E+00
  0.00000000E+00  1.65383239E-04  1.59163548E-04  0.00000000E+00  1.59016353E-05
 -3.08202020E-06  0.00000000E+00  0.00000000E+00 -3.43410818E-06 -1.24931328E-05
  0.00000000E+00 -3.36909977E-05  4.48270669E-05  0.00000000E+00  0.00000000E+00
  8.25129094E-05  9.09769304E-05  4.04404895E-05 -1.00663308E-03 -4.91559442E-04
 -1.17975443E-05 -2.23769764E-05  1.51364175E-05  0.00000000E+00 -2.17903422E-06
  2.76636025E-04  0.00000000E+00 -4.33976836E-05  1.34138219E-04  0.00000000E+00
  2.64340033E-05  0.00000000E+00  0.00000000E+00  1.10310642E-05  1.12554420E-05
 -2.93524597E-05  0.00000000E+00  0.00000000E+00  1.11697778E-05  3.67430624E-05
  1.12585878E-04  8.88008118E-05 -2.84381695E-05  7.51909927E-04  6.48841866E-04
  1.01760109E-05  2.97425150E-06  0.00000000E+00 -7.59760793E-05  9.84942671E-06
  0.00000000E+00  3.41361174E-04  9.44465846E-04  0.00000000E+00  6.28769674E-06
  8.56633093E-05  0.00000000E+00 -2.66021209E-06  0.00000000E+00  0.00000000E+00
  1.72384889E-07 -5.25794296E-06 -3.48957250E-05  0.00000000E+00  0.00000000E+00
 -1.90880536E-05  8.22707651E-05 -2.22492453E-05  0.00000000E+00  0.00000000E+00
 -2.68308203E-04 -1.82408363E-04  0.00000000E+00  8.95376909E-06  6.51733229E-06
  0.00000000E+00  0.00000000E+00  3.42359258E-06 -1.86300218E-05  0.00000000E+00
 -4.02985311E-05 -4.06327316E-05  0.00000000E+00  0.00000000E+00 -8.18322329E-05
  2.05349659E-05  2.96251148E-03  3.36003843E-05  1.07530430E-04 -6.19229177E-05
 -4.71877143E-04  8.64293646E-06  1.53856643E-05  0.00000000E+00 -6.68439025E-05
 -5.60940646E-05  0.00000000E+00  2.42774204E-04 -2.07574206E-04  0.00000000E+00
 -1.85900268E-04 -6.70395069E-05  0.00000000E+00 -8.60535343E-06  0.00000000E+00
  0.00000000E+00  2.24127189E-05  2.01627491E-05  5.10775599E-06  0.00000000E+00
  0.00000000E+00 -1.19808368E-04 -4.92814025E-05 -4.89640659E-06  0.00000000E+00
  0.00000000E+00 -2.21222866E-04 -2.23711550E-04  0.00000000E+00  3.92002069E-06
 -4.49349290E-07  0.00000000E+00  0.00000000E+00  2.12054231E-06 -1.35903887E-05
  0.00000000E+00 -4.81141409E-05  2.84652463E-06  0.00000000E+00  0.00000000E+00
 -8.41240691E-05  1.86732549E-04  2.58533891E-04  1.46460563E-03 -7.75317082E-05
 -1.53661316E-03  4.05525658E-04 -1.44042859E-04 -9.20613060E-07  0.00000000E+00
 -2.09227054E-03 -4.22739813E-04  0.00000000E+00  1.04453413E-03  7.84142283E-04
  0.00000000E+00 -1.68738188E-04  5.70422482E-05  0.00000000E+00 -1.23254413E-04
  0.00000000E+00  0.00000000E+00  2.41707219E-04  9.79888729E-05 -4.43069080E-04
  0.00000000E+00  0.00000000E+00  9.00346506E-04 -5.40845116E-05  1.02512760E-05
  0.00000000E+00  0.00000000E+00 -3.38809492E-04 -1.28229776E-04  0.00000000E+00
 -9.37402260E-07  1.54786141E-05  0.00000000E+00  0.00000000E+00  1.85950467E-05
  1.31730333E-05  0.00000000E+00  1.63021422E-04 -7.24009420E-05  0.00000000E+00
  0.00000000E+00 -2.40897980E-04  4.03302399E-05  9.76648017E-01 -9.84759870E-03
  4.35692295E-02  4.50813849E-03 -4.45459777E-04  2.14460135E-03  4.96762687E-04
  0.00000000E+00 -2.37977336E-03 -6.23870940E-04  0.00000000E+00  1.13783536E-03
  2.40495251E-06  0.00000000E+00  4.11155339E-06 -4.25978067E-05  0.00000000E+00
 -2.32468630E-04  0.00000000E+00  0.00000000E+00  1.02090139E-04  3.37571832E-05
  3.90894272E-04  0.00000000E+00  0.00000000E+00 -8.28448190E-04 -4.33536157E-04
 -1.52396941E-04  0.00000000E+00  0.00000000E+00  2.53556756E-04  1.89046133E-05
  0.00000000E+00  5.22027423E-05  1.81596679E-05  0.00000000E+00  0.00000000E+00
 -2.17680679E-05 -1.37239694E-05  0.00000000E+00  1.38603531E-04  1.03338119E-05
  0.00000000E+00  0.00000000E+00 -1.87198805E-04 -1.45819894E-04  4.71122615E-04
  2.01619011E-03  7.94480099E-05  1.31904603E-05 -3.79714569E-05 -2.40691777E-04
  0.00000000E+00  1.27548754E-04 -1.25464004E-03  0.00000000E+00  3.28827937E-04
 -3.25801884E-04  0.00000000E+00 -2.02373260E-06  0.00000000E+00  0.00000000E+00
  8.12144862E-05  1.55521721E-05 -1.58281786E-04  0.00000000E+00  0.00000000E+00
 -5.35608091E-04 -3.85498021E-05  9.76815001E-01 -9.16273163E-03  4.34839390E-02
  7.43882214E-08 -1.24087029E-03 -1.61684396E-03  1.42038439E-03  0.00000000E+00
  1.65360602E-03 -1.25010302E-03  0.00000000E+00 -4.25220085E-04 -8.52494596E-04
  0.00000000E+00  7.25916103E-05 -3.98557327E-05  0.00000000E+00  2.44751829E-05
  0.00000000E+00  0.00000000E+00 -1.09574255E-04 -5.29950077E-06  7.77707178E-04
  0.00000000E+00  0.00000000E+00 -2.46158340E-04 -2.38735495E-04 -2.49055156E-04
  0.00000000E+00  0.00000000E+00  1.20501635E-04  1.30337058E-04  0.00000000E+00
 -6.73305429E-05 -1.06331118E-06  0.00000000E+00  0.00000000E+00  2.22581915E-05
  8.58700467E-06  0.00000000E+00 -1.56986118E-05  1.23897965E-04  0.00000000E+00
  0.00000000E+00  2.71914720E-04  9.45956957E-05 -4.83806095E-03 -1.80993026E-04