title                                                                   
SP        RMP2-FC                                                     Aug-CC-pVTZ         
Number of atoms                            I                5
Info1-9                                    I   N=           9
          33          24           0           0           0         110
           1           2           1
Full Title                                 C   N=           1
title       
Route                                      C   N=           4
#p SP mp2/aug-cc-pvtz density=current           
Charge                                     I                0
Multiplicity                               I                1
Number of electrons                        I               32
Number of alpha electrons                  I               16
Number of beta electrons                   I               16
Number of basis functions                  I              207
Number of independent functions            I              207
Number of point charges in /Mol/           I                0
Number of translation vectors              I                0
Atomic numbers                             I   N=           5
           1           8           8           7           8
Nuclear charges                            R   N=           5
  1.00000000E+00  8.00000000E+00  8.00000000E+00  7.00000000E+00  8.00000000E+00
Current cartesian coordinates              R   N=          15
  2.92418700E+00  3.17821885E+00 -5.09677289E-32  2.74761961E+00  1.35565324E+00
 -3.88376996E-32  8.51805715E-18  1.25675183E+00 -3.82539460E-33 -4.89876203E-01
 -1.45607496E+00 -3.65826851E-32 -2.68450131E+00 -1.73561684E+00 -3.23924890E-32
Number of symbols in /Mol/                 I                0
Force Field                                I                0
Atom Types                                 C   N=           5
                                                            
Int Atom Types                             I   N=           5
           0           0           0           0           0
MM charges                                 R   N=           5
  0.00000000E+00  0.00000000E+00  0.00000000E+00  0.00000000E+00  0.00000000E+00
Integer atomic weights                     I   N=           5
           1          16          16          14          16
Real atomic weights                        R   N=           5
  1.00782504E+00  1.59949146E+01  1.59949146E+01  1.40030740E+01  1.59949146E+01
Atom fragment info                         I   N=           5
           0           0           0           0           0
Atom residue num                           I   N=           5
           0           0           0           0           0
Nuclear spins                              I   N=           5
           1           0           0           2           0
Nuclear ZEff                               R   N=           5
 -1.00000000E+00 -5.60000000E+00 -5.60000000E+00 -4.55000000E+00 -5.60000000E+00
Nuclear ZNuc                               R   N=           5
  1.00000000E+00  8.00000000E+00  8.00000000E+00  7.00000000E+00  8.00000000E+00
Nuclear QMom                               R   N=           5
  0.00000000E+00  0.00000000E+00  0.00000000E+00  2.04400000E+00  0.00000000E+00
Nuclear GFac                               R   N=           5
  2.79284600E+00  0.00000000E+00  0.00000000E+00  4.03761000E-01  0.00000000E+00
MicOpt                                     I   N=           5
          -1          -1          -1          -1          -1
Number of residues                         I                0
Number of secondary structures             I                0
SymInf integers                            I   N=          26
           1           2           1           1           1           1
           1          -1           0           0           0           0
           0           0           0           0           0           0
           0           0           0           0           0           0
           0           0
RotTr to input orientation                 R   N=          12
 -9.95340056E-01 -9.88810365E-17 -9.64270314E-02  9.64270314E-02 -7.22505255E-17
 -9.95340056E-01  9.14533528E-17 -1.00000000E+00  8.14486470E-17  2.60409424E+00
  0.00000000E+00  3.44537921E+00
Number of contracted shells                I               65
Number of primitive shells                 I              119
Pure/Cartesian d shells                    I                0
Pure/Cartesian f shells                    I                0
Highest angular momentum                   I                3
Largest degree of contraction              I                7
Shell types                                I   N=          65
           0           0           0           0           1           1
           1          -2          -2           0           0           0
           0           0           1           1           1           1
          -2          -2          -2          -3          -3           0
           0           0           0           0           1           1
           1           1          -2          -2          -2          -3
          -3           0           0           0           0           0
           1           1           1           1          -2          -2
          -2          -3          -3           0           0           0
           0           0           1           1           1           1
          -2          -2          -2          -3          -3
Number of primitives per shell             I   N=          65
           3           1           1           1           1           1
           1           1           1           7           6           1
           1           1           3           1           1           1
           1           1           1           1           1           7
           6           1           1           1           3           1
           1           1           1           1           1           1
           1           7           6           1           1           1
           3           1           1           1           1           1
           1           1           1           7           6           1
           1           1           3           1           1           1
           1           1           1           1           1
Shell to atom map                          I   N=          65
           1           1           1           1           1           1
           1           1           1           2           2           2
           2           2           2           2           2           2
           2           2           2           2           2           3
           3           3           3           3           3           3
           3           3           3           3           3           3
           3           4           4           4           4           4
           4           4           4           4           4           4
           4           4           4           5           5           5
           5           5           5           5           5           5
           5           5           5           5           5
Primitive exponents                        R   N=         119
  3.38700000E+01  5.09500000E+00  1.15900000E+00  3.25800000E-01  1.02700000E-01
  2.52600000E-02  1.40700000E+00  3.88000000E-01  1.02000000E-01  1.05700000E+00
  2.47000000E-01  1.53300000E+04  2.29900000E+03  5.22400000E+02  1.47300000E+02
  4.75500000E+01  1.67600000E+01  6.20700000E+00  5.22400000E+02  1.47300000E+02
  4.75500000E+01  1.67600000E+01  6.20700000E+00  6.88200000E-01  1.75200000E+00
  2.38400000E-01  7.37600000E-02  3.44600000E+01  7.74900000E+00  2.28000000E+00
  7.15600000E-01  2.14000000E-01  5.97400000E-02  2.31400000E+00  6.45000000E-01
  2.14000000E-01  1.42800000E+00  5.00000000E-01  1.53300000E+04  2.29900000E+03
  5.22400000E+02  1.47300000E+02  4.75500000E+01  1.67600000E+01  6.20700000E+00
  5.22400000E+02  1.47300000E+02  4.75500000E+01  1.67600000E+01  6.20700000E+00
  6.88200000E-01  1.75200000E+00  2.38400000E-01  7.37600000E-02  3.44600000E+01
  7.74900000E+00  2.28000000E+00  7.15600000E-01  2.14000000E-01  5.97400000E-02
  2.31400000E+00  6.45000000E-01  2.14000000E-01  1.42800000E+00  5.00000000E-01
  1.14200000E+04  1.71200000E+03  3.89300000E+02  1.10000000E+02  3.55700000E+01
  1.25400000E+01  4.64400000E+00  3.89300000E+02  1.10000000E+02  3.55700000E+01
  1.25400000E+01  4.64400000E+00  5.11800000E-01  1.29300000E+00  1.78700000E-01
  5.76000000E-02  2.66300000E+01  5.94800000E+00  1.74200000E+00  5.55000000E-01
  1.72500000E-01  4.91000000E-02  1.65400000E+00  4.69000000E-01  1.51000000E-01
  1.09300000E+00  3.64000000E-01  1.53300000E+04  2.29900000E+03  5.22400000E+02
  1.47300000E+02  4.75500000E+01  1.67600000E+01  6.20700000E+00  5.22400000E+02
  1.47300000E+02  4.75500000E+01  1.67600000E+01  6.20700000E+00  6.88200000E-01
  1.75200000E+00  2.38400000E-01  7.37600000E-02  3.44600000E+01  7.74900000E+00
  2.28000000E+00  7.15600000E-01  2.14000000E-01  5.97400000E-02  2.31400000E+00
  6.45000000E-01  2.14000000E-01  1.42800000E+00  5.00000000E-01
Contraction coefficients                   R   N=         119
  2.54948632E-02  1.90362766E-01  8.52162022E-01  1.00000000E+00  1.00000000E+00
  1.00000000E+00  1.00000000E+00  1.00000000E+00  1.00000000E+00  1.00000000E+00
  1.00000000E+00  5.19808943E-04  4.02025621E-03  2.07128267E-02  8.10105536E-02
  2.35962985E-01  4.42653446E-01  3.57064423E-01 -4.42115008E-05 -1.22591041E-03
 -1.05517725E-02 -6.74452633E-02 -1.71198607E-01  1.07329856E+00  1.00000000E+00
  1.00000000E+00  1.00000000E+00  4.11634896E-02  2.57762836E-01  8.02419274E-01
  1.00000000E+00  1.00000000E+00  1.00000000E+00  1.00000000E+00  1.00000000E+00
  1.00000000E+00  1.00000000E+00  1.00000000E+00  5.19808943E-04  4.02025621E-03
  2.07128267E-02  8.10105536E-02  2.35962985E-01  4.42653446E-01  3.57064423E-01
 -4.42115008E-05 -1.22591041E-03 -1.05517725E-02 -6.74452633E-02 -1.71198607E-01
  1.07329856E+00  1.00000000E+00  1.00000000E+00  1.00000000E+00  4.11634896E-02
  2.57762836E-01  8.02419274E-01  1.00000000E+00  1.00000000E+00  1.00000000E+00
  1.00000000E+00  1.00000000E+00  1.00000000E+00  1.00000000E+00  1.00000000E+00
  5.34563860E-04  4.13435660E-03  2.12335358E-02  8.25006224E-02  2.38138871E-01
  4.42551547E-01  3.53757422E-01 -4.89867350E-05 -1.19527323E-03 -1.03490714E-02
 -6.48680190E-02 -1.71552477E-01  1.07289568E+00  1.00000000E+00  1.00000000E+00
  1.00000000E+00  3.98072123E-02  2.49002660E-01  8.10479727E-01  1.00000000E+00
  1.00000000E+00  1.00000000E+00  1.00000000E+00  1.00000000E+00  1.00000000E+00
  1.00000000E+00  1.00000000E+00  5.19808943E-04  4.02025621E-03  2.07128267E-02
  8.10105536E-02  2.35962985E-01  4.42653446E-01  3.57064423E-01 -4.42115008E-05
 -1.22591041E-03 -1.05517725E-02 -6.74452633E-02 -1.71198607E-01  1.07329856E+00
  1.00000000E+00  1.00000000E+00  1.00000000E+00  4.11634896E-02  2.57762836E-01
  8.02419274E-01  1.00000000E+00  1.00000000E+00  1.00000000E+00  1.00000000E+00
  1.00000000E+00  1.00000000E+00  1.00000000E+00  1.00000000E+00
Coordinates of each shell                  R   N=         195
  2.92418700E+00  3.17821885E+00 -1.80216938E-32  2.92418700E+00  3.17821885E+00
 -1.80216938E-32  2.92418700E+00  3.17821885E+00 -1.80216938E-32  2.92418700E+00
  3.17821885E+00 -1.80216938E-32  2.92418700E+00  3.17821885E+00 -1.80216938E-32
  2.92418700E+00  3.17821885E+00 -1.80216938E-32  2.92418700E+00  3.17821885E+00
 -1.80216938E-32  2.92418700E+00  3.17821885E+00 -1.80216938E-32  2.92418700E+00
  3.17821885E+00 -1.80216938E-32  2.74761961E+00  1.35565324E+00 -1.69335132E-32
  2.74761961E+00  1.35565324E+00 -1.69335132E-32  2.74761961E+00  1.35565324E+00
 -1.69335132E-32  2.74761961E+00  1.35565324E+00 -1.69335132E-32  2.74761961E+00
  1.35565324E+00 -1.69335132E-32  2.74761961E+00  1.35565324E+00 -1.69335132E-32
  2.74761961E+00  1.35565324E+00 -1.69335132E-32  2.74761961E+00  1.35565324E+00
 -1.69335132E-32  2.74761961E+00  1.35565324E+00 -1.69335132E-32  2.74761961E+00
  1.35565324E+00 -1.69335132E-32  2.74761961E+00  1.35565324E+00 -1.69335132E-32
  2.74761961E+00  1.35565324E+00 -1.69335132E-32  2.74761961E+00  1.35565324E+00
 -1.69335132E-32  2.74761961E+00  1.35565324E+00 -1.69335132E-32  1.06613556E-17
  1.25675183E+00  0.00000000E+00  1.06613556E-17  1.25675183E+00  0.00000000E+00
  1.06613556E-17  1.25675183E+00  0.00000000E+00  1.06613556E-17  1.25675183E+00
  0.00000000E+00  1.06613556E-17  1.25675183E+00  0.00000000E+00  1.06613556E-17
  1.25675183E+00  0.00000000E+00  1.06613556E-17  1.25675183E+00  0.00000000E+00
  1.06613556E-17  1.25675183E+00  0.00000000E+00  1.06613556E-17  1.25675183E+00
  0.00000000E+00  1.06613556E-17  1.25675183E+00  0.00000000E+00  1.06613556E-17
  1.25675183E+00  0.00000000E+00  1.06613556E-17  1.25675183E+00  0.00000000E+00
  1.06613556E-17  1.25675183E+00  0.00000000E+00  1.06613556E-17  1.25675183E+00
  0.00000000E+00 -4.89876203E-01 -1.45607496E+00  3.01909519E-33 -4.89876203E-01
 -1.45607496E+00  3.01909519E-33 -4.89876203E-01 -1.45607496E+00  3.01909519E-33
 -4.89876203E-01 -1.45607496E+00  3.01909519E-33 -4.89876203E-01 -1.45607496E+00
  3.01909519E-33 -4.89876203E-01 -1.45607496E+00  3.01909519E-33 -4.89876203E-01
 -1.45607496E+00  3.01909519E-33 -4.89876203E-01 -1.45607496E+00  3.01909519E-33
 -4.89876203E-01 -1.45607496E+00  3.01909519E-33 -4.89876203E-01 -1.45607496E+00
  3.01909519E-33 -4.89876203E-01 -1.45607496E+00  3.01909519E-33 -4.89876203E-01
 -1.45607496E+00  3.01909519E-33 -4.89876203E-01 -1.45607496E+00  3.01909519E-33
 -4.89876203E-01 -1.45607496E+00  3.01909519E-33 -2.68450131E+00 -1.73561684E+00
  1.65445167E-32 -2.68450131E+00 -1.73561684E+00  1.65445167E-32 -2.68450131E+00
 -1.73561684E+00  1.65445167E-32 -2.68450131E+00 -1.73561684E+00  1.65445167E-32
 -2.68450131E+00 -1.73561684E+00  1.65445167E-32 -2.68450131E+00 -1.73561684E+00
  1.65445167E-32 -2.68450131E+00 -1.73561684E+00  1.65445167E-32 -2.68450131E+00
 -1.73561684E+00  1.65445167E-32 -2.68450131E+00 -1.73561684E+00  1.65445167E-32
 -2.68450131E+00 -1.73561684E+00  1.65445167E-32 -2.68450131E+00 -1.73561684E+00
  1.65445167E-32 -2.68450131E+00 -1.73561684E+00  1.65445167E-32 -2.68450131E+00
 -1.73561684E+00  1.65445167E-32 -2.68450131E+00 -1.73561684E+00  1.65445167E-32
Num ILSW                                   I              100
ILSW                                       I   N=         100
           0           0           0           0           2           0
           0           0           0           0           0          -1
           5           0           0           0           0           0
           0           0           0           0           0           0
           1           0           0           0           0           0
           0           0      100000           0          -1           0
           0           0           0           0           0           0
           0           0           0           1           0           0
           0 -2000000000           1           0           0           0
           0           0           4          52           0           0
           0           0           0           0           0           0
           0           0           0           5           0           1
           0           0           0           0           0           0
           0           0           0           0           0           0
           0           0           0           0           0           0
           0           0           0           0           0           0
           0           0           0           0
Num RLSW                                   I               52
RLSW                                       R   N=          52
  1.00000000E+00  1.00000000E+00  1.00000000E+00  1.00000000E+00  1.00000000E+00
  0.00000000E+00  0.00000000E+00  1.00000000E+00  0.00000000E+00  0.00000000E+00
  0.00000000E+00  0.00000000E+00  1.00000000E+00  0.00000000E+00  0.00000000E+00
  0.00000000E+00  0.00000000E+00  1.00000000E+00  0.00000000E+00  0.00000000E+00
  0.00000000E+00  0.00000000E+00  1.00000000E+00  0.00000000E+00  0.00000000E+00
  0.00000000E+00  0.00000000E+00  1.00000000E+00  0.00000000E+00  0.00000000E+00
  0.00000000E+00  0.00000000E+00  1.00000000E+00  0.00000000E+00  0.00000000E+00
  0.00000000E+00  0.00000000E+00  0.00000000E+00  1.00000000E+00  1.00000000E+00
  0.00000000E+00  1.00000000E+00  0.00000000E+00  0.00000000E+00  0.00000000E+00
  0.00000000E+00  0.00000000E+00  0.00000000E+00  0.00000000E+00  0.00000000E+00
  0.00000000E+00  0.00000000E+00
MxBond                                     I                2
NBond                                      I   N=           5
           1           2           2           2           1
IBond                                      I   N=          10
           2           0           1           3           2           4
           3           5           4           0
RBond                                      R   N=          10
  1.00000000E+00  0.00000000E+00  1.00000000E+00  1.00000000E+00  1.00000000E+00
  1.00000000E+00  1.00000000E+00  2.00000000E+00  2.00000000E+00  0.00000000E+00
Virial Ratio                               R      2.002312816118498E+00
SCF Energy                                 R     -2.795015904165575E+02
MP2 Energy                                 R     -2.804465510883837E+02
Total Energy                               R     -2.804465510883837E+02
Post-SCF wavefunction norm                 R      1.120158289936401E+00
RMS Density                                R      3.725866308855462E-09
Job Status                                 I                1
Nuclear derivative order                   I                0
External E-field                           R   N=          35
  0.00000000E+00  0.00000000E+00  0.00000000E+00  0.00000000E+00  0.00000000E+00
  0.00000000E+00  0.00000000E+00  0.00000000E+00  0.00000000E+00  0.00000000E+00
  0.00000000E+00  0.00000000E+00  0.00000000E+00  0.00000000E+00  0.00000000E+00
  0.00000000E+00  0.00000000E+00  0.00000000E+00  0.00000000E+00  0.00000000E+00
  0.00000000E+00  0.00000000E+00  0.00000000E+00  0.00000000E+00  0.00000000E+00
  0.00000000E+00  0.00000000E+00  0.00000000E+00  0.00000000E+00  0.00000000E+00
  0.00000000E+00  0.00000000E+00  0.00000000E+00  0.00000000E+00  0.00000000E+00
IOpCl                                      I                0
IROHF                                      I                0
Alpha Orbital Energies                     R   N=         207
 -2.06902249E+01 -2.06837350E+01 -2.06589459E+01 -1.58133686E+01 -1.62537150E+00
 -1.49455875E+00 -1.25310637E+00 -9.48493540E-01 -7.71902961E-01 -7.59732997E-01
 -7.12107227E-01 -6.78953593E-01 -6.19820773E-01 -5.88021642E-01 -4.84468142E-01
 -4.74346882E-01  2.97524620E-02  7.10008678E-02  8.62461045E-02  1.01683463E-01
  1.33863778E-01  1.33864593E-01  1.44163466E-01  1.54417493E-01  1.78427882E-01
  1.94098977E-01  1.99871578E-01  2.06642288E-01  2.20778664E-01  2.36992451E-01
  2.37596452E-01  2.67169661E-01  2.92126989E-01  3.03424583E-01  3.10192836E-01
  3.43903290E-01  3.49543938E-01  3.87733502E-01  4.22657729E-01  4.32212176E-01
  5.28057929E-01  5.28764896E-01  5.57884119E-01  5.80093164E-01  6.25075949E-01
  6.41475649E-01  6.74863248E-01  6.84700535E-01  7.04171346E-01  7.11803893E-01
  7.23389787E-01  7.29131957E-01  7.43149817E-01  7.92828598E-01  7.94333179E-01
  8.11244082E-01  8.13326406E-01  8.31322176E-01  8.68152806E-01  9.09319708E-01
  9.22480772E-01  9.29649222E-01  9.56346102E-01  9.74465902E-01  9.85021301E-01
  1.01707103E+00  1.05193389E+00  1.05502029E+00  1.08322346E+00  1.11723624E+00
  1.14213605E+00  1.19052417E+00  1.21778904E+00  1.23348692E+00  1.33963240E+00
  1.35293392E+00  1.38845840E+00  1.45596158E+00  1.48753583E+00  1.50722481E+00
  1.53767704E+00  1.56846353E+00  1.57943456E+00  1.61236526E+00  1.66472012E+00
  1.67188648E+00  1.70162108E+00  1.79191052E+00  1.82956101E+00  1.83523096E+00
  1.88147696E+00  1.90734818E+00  1.95680944E+00  1.99389031E+00  2.00237157E+00
  2.08150050E+00  2.12343328E+00  2.13018034E+00  2.15191981E+00  2.22681000E+00
  2.26586083E+00  2.26848255E+00  2.28949746E+00  2.31471570E+00  2.34793299E+00
  2.38639576E+00  2.42745160E+00  2.42819104E+00  2.45049685E+00  2.45808319E+00
  2.47920588E+00  2.50057438E+00  2.58839667E+00  2.59949655E+00  2.62202506E+00
  2.62481831E+00  2.63407894E+00  2.67261533E+00  2.75212621E+00  2.81384446E+00
  2.84812101E+00  2.89335252E+00  2.89484234E+00  2.94322931E+00  2.95142634E+00
  3.02754023E+00  3.06322460E+00  3.12802100E+00  3.20532871E+00  3.22338478E+00
  3.31993570E+00  3.33673123E+00  3.52848873E+00  3.63701137E+00  3.83849918E+00
  3.84402320E+00  4.14981756E+00  4.16905746E+00  4.18510907E+00  4.25820371E+00
  4.34783528E+00  4.39361711E+00  4.46342600E+00  4.52085856E+00  4.65522546E+00
  4.71252833E+00  4.80105847E+00  4.82998670E+00  4.83207912E+00  4.89664773E+00
  5.02510063E+00  5.07607225E+00  5.10790131E+00  5.14653007E+00  5.17235618E+00
  5.24488627E+00  5.27491033E+00  5.30336039E+00  5.33124204E+00  5.35113762E+00
  5.60177131E+00  5.67341183E+00  5.78785608E+00  5.82940268E+00  5.95647945E+00
  6.16984613E+00  6.31151714E+00  6.33547224E+00  6.39499801E+00  6.49694815E+00
  6.50988220E+00  6.61562100E+00  6.66817032E+00  6.70696716E+00  6.75795982E+00
  6.76552078E+00  6.83702638E+00  6.89172002E+00  7.01870211E+00  7.05702796E+00
  7.05984776E+00  7.09243254E+00  7.12284142E+00  7.15220735E+00  7.18275698E+00
  7.22660347E+00  7.24287972E+00  7.30798090E+00  7.32558272E+00  7.34761452E+00
  7.39864321E+00  7.43107353E+00  7.48257862E+00  7.60989290E+00  7.61060928E+00
  7.63273542E+00  7.67054308E+00  7.80156574E+00  7.87852869E+00  8.09468120E+00
  8.31575777E+00  8.40918329E+00  8.54310931E+00  1.34031781E+01  1.43754302E+01
  1.51710538E+01  1.61602749E+01
Alpha MO coefficients                      R   N=       42849
  9.23369449E-05 -6.18754764E-04 -7.27827842E-04 -3.69915890E-06 -2.16127181E-05
 -2.76126377E-05  0.00000000E+00 -4.33108981E-05  5.42337558E-05  0.00000000E+00
  8.72680094E-05  3.70852372E-05  0.00000000E+00  3.17455767E-05  0.00000000E+00
  0.00000000E+00 -5.06285573E-05  2.05403150E-05 -3.51954281E-06  0.00000000E+00
  0.00000000E+00 -1.41737115E-04  1.18283522E-04  4.53022755E-03 -2.80654958E-04
  1.15549715E-05  1.52863506E-03  1.82522307E-03  1.06946584E-04  7.77949779E-06
  0.00000000E+00 -6.19356260E-04 -3.87319191E-05  0.00000000E+00 -1.10238266E-03
  7.66051104E-04  0.00000000E+00 -4.04012918E-04  6.08186124E-05  0.00000000E+00
  2.90004601E-05  0.00000000E+00  0.00000000E+00 -5.45569856E-05  5.81919767E-06
 -3.79034889E-04  0.00000000E+00  0.00000000E+00  7.44547030E-04 -3.12091364E-05
 -4.46235296E-04  0.00000000E+00  0.00000000E+00  2.49700413E-04 -5.97580539E-06
  0.00000000E+00  8.03746483E-05  1.29075114E-05  0.00000000E+00  0.00000000E+00
 -1.09647707E-04 -3.59061596E-06  0.00000000E+00  2.56447592E-04 -2.69586027E-05
  0.00000000E+00  0.00000000E+00 -3.55266379E-04  4.88792414E-05  9.76911094E-01
 -9.21679076E-03  4.33186572E-02  2.02224796E-03 -8.99145809E-04  1.50286797E-03
 -1.33867147E-03  0.00000000E+00 -1.44576538E-03  1.36654426E-03  0.00000000E+00
  8.29091981E-05 -1.13835230E-03  0.00000000E+00 -1.35847038E-04 -1.50281065E-05
  0.00000000E+00  4.69479404E-05  0.00000000E+00  0.00000000E+00 -3.35778468E-05
  2.23634278E-05  7.49296872E-04  0.00000000E+00  0.00000000E+00 -2.38234852E-04
 -3.90826668E-04 -3.68349132E-04  0.00000000E+00  0.00000000E+00 -2.97963405E-04
 -3.53552729E-04  0.00000000E+00  4.71465394E-05 -4.83763973E-05  0.00000000E+00
  0.00000000E+00 -3.95722770E-05 -1.45063226E-05  0.00000000E+00  2.57750229E-05
  2.24837123E-05  0.00000000E+00  0.00000000E+00 -3.02721920E-04 -1.42076599E-04
  3.87523081E-05  4.47491408E-05 -2.62075272E-04 -7.29348840E-04 -1.73623291E-04
 -2.59680343E-05 -9.61416441E-05  0.00000000E+00  2.72276159E-04  6.98137758E-04
  0.00000000E+00 -8.00930939E-04 -4.52182187E-04  0.00000000E+00 -1.23833081E-04
 -3.28582827E-05  0.00000000E+00 -1.83096567E-05  0.00000000E+00  0.00000000E+00
 -3.01980765E-05  1.67597582E-05 -3.25945752E-04  0.00000000E+00  0.00000000E+00
 -8.22049851E-04  1.23169784E-04 -3.60197436E-05  0.00000000E+00  0.00000000E+00
  8.84334237E-05 -1.24090246E-04  0.00000000E+00 -2.02110815E-05 -1.19407452E-04
  0.00000000E+00  0.00000000E+00 -6.20040806E-05 -1.37020866E-04  0.00000000E+00
  4.75964923E-06 -1.53746223E-04  0.00000000E+00  0.00000000E+00  4.27609481E-05
 -4.10365274E-04 -2.66916266E-03  1.31923970E-04 -1.23310968E-04 -2.17224282E-04
  1.61112666E-04 -7.56325279E-06 -2.46964587E-05  0.00000000E+00  7.44414685E-05
  1.48064002E-04  0.00000000E+00  2.50500868E-04  1.84907516E-04  0.00000000E+00
  1.32664968E-04  2.59682916E-05  0.00000000E+00 -4.01125248E-06  0.00000000E+00
  0.00000000E+00 -1.82918094E-05  2.04957781E-06  7.18371013E-06  0.00000000E+00
  0.00000000E+00  9.22883097E-05  7.50448137E-05 -9.49130851E-05  0.00000000E+00
  0.00000000E+00  1.80991916E-04  1.56540878E-04  0.00000000E+00  1.67818196E-05
 -2.14725680E-06  0.00000000E+00  0.00000000E+00 -1.98683775E-06 -1.25439903E-05
  0.00000000E+00 -3.03719209E-05  4.29132799E-05  0.00000000E+00  0.00000000E+00
  9.11966815E-05  8.82758977E-05  3.92858485E-05 -9.73549224E-04 -4.73261902E-04
 -1.07066122E-05 -1.94167912E-05  1.46172315E-05  0.00000000E+00 -5.66098227E-06
  2.61656859E-04  0.00000000E+00 -4.69588379E-05  1.29460420E-04  0.00000000E+00
  2.51966962E-05  0.00000000E+00  0.00000000E+00  1.06971359E-05  1.09377164E-05
 -3.13377810E-05  0.00000000E+00  0.00000000E+00  1.25879829E-05  3.61060062E-05
  1.13415264E-04  8.35151735E-05 -2.71349524E-05  7.18152742E-04  6.59179640E-04
  1.03273687E-05  2.53611751E-06  0.00000000E+00 -7.48647598E-05  1.13923552E-05
  0.00000000E+00  3.42546212E-04  9.21342246E-04  0.00000000E+00  1.04704291E-06
  8.66308944E-05  0.00000000E+00 -2.33037026E-06  0.00000000E+00  0.00000000E+00
 -1.56707493E-07 -4.49341859E-06 -3.40782473E-05  0.00000000E+00  0.00000000E+00
 -1.60221340E-05  7.39255323E-05 -2.35747735E-05  0.00000000E+00  0.00000000E+00
 -2.74099165E-04 -1.76475386E-04  0.00000000E+00  8.73137331E-06  6.25253520E-06
  0.00000000E+00  0.00000000E+00  2.27608003E-06 -1.81199993E-05  0.00000000E+00
 -3.79971476E-05 -3.95711095E-05  0.00000000E+00  0.00000000E+00 -7.43172354E-05
  2.54443490E-05  2.70905573E-03  3.98886585E-05  1.01659822E-04 -9.67829175E-05
 -5.06397203E-04  4.78125506E-06  1.16747322E-05  0.00000000E+00 -5.31218224E-05
 -3.80817992E-05  0.00000000E+00  2.80669956E-04 -1.89496914E-04  0.00000000E+00
 -2.01110861E-04 -7.06781787E-05  0.00000000E+00 -9.08255713E-06  0.00000000E+00
  0.00000000E+00  2.21215211E-05  2.21286662E-05  1.20547748E-05  0.00000000E+00
  0.00000000E+00 -1.11902669E-04 -6.51483634E-05  4.70700910E-06  0.00000000E+00
  0.00000000E+00 -2.21830695E-04 -2.48892048E-04  0.00000000E+00  7.11007972E-07
 -4.22776280E-06  0.00000000E+00  0.00000000E+00 -1.85704203E-06 -1.06225771E-05
  0.00000000E+00 -4.35158127E-05  8.36876672E-06  0.00000000E+00  0.00000000E+00
 -7.85176915E-05  1.76710607E-04  2.57747066E-04  1.45600487E-03 -8.15581400E-05
 -1.46015818E-03  4.22300874E-04 -1.45785426E-04  1.00358719E-06  0.00000000E+00
 -2.08375071E-03 -3.46887704E-04  0.00000000E+00  9.85585739E-04  7.33639573E-04
  0.00000000E+00 -1.62309341E-04  7.06558150E-05  0.00000000E+00 -1.22171914E-04
  0.00000000E+00  0.00000000E+00  2.48633016E-04  8.27881204E-05 -4.49255454E-04
  0.00000000E+00  0.00000000E+00  8.81253236E-04 -1.00841867E-04  2.82226058E-06
  0.00000000E+00  0.00000000E+00 -3.38795666E-04 -1.15621810E-04  0.00000000E+00
 -2.56310854E-06  1.42646613E-05  0.00000000E+00  0.00000000E+00  1.95957492E-05
  1.03052741E-05  0.00000000E+00  1.68257300E-04 -7.59041859E-05  0.00000000E+00
  0.00000000E+00 -2.32491729E-04  4.75910615E-05  9.76646281E-01 -9.85088512E-03
  4.35719088E-02  4.45882650E-03 -4.57058689E-04  2.16068668E-03  4.09453748E-04
  0.00000000E+00 -2.39761850E-03 -5.28282715E-04  0.00000000E+00  1.13161626E-03
 -3.68351534E-06  0.00000000E+00  1.94530616E-06 -4.73563076E-05  0.00000000E+00
 -2.33551153E-04  0.00000000E+00  0.00000000E+00  1.02971573E-04  2.78705271E-05
  3.88556443E-04  0.00000000E+00  0.00000000E+00 -8.54115179E-04 -3.63727101E-04
 -1.60494661E-04  0.00000000E+00  0.00000000E+00  2.49126951E-04  1.97709187E-05
  0.00000000E+00  5.27475713E-05  1.70676314E-05  0.00000000E+00  0.00000000E+00
 -2.19930339E-05 -1.09195817E-05  0.00000000E+00  1.37540740E-04  2.07630567E-06
  0.00000000E+00  0.00000000E+00 -2.02577616E-04 -1.22264911E-04  4.75117759E-04
  2.05201396E-03  1.06429852E-04  1.47707595E-05 -4.07738992E-05 -2.46970098E-04
  0.00000000E+00  1.14325390E-04 -1.27147430E-03  0.00000000E+00  3.19337718E-04
 -3.34069460E-04  0.00000000E+00 -2.48653171E-06  0.00000000E+00  0.00000000E+00
  7.62122075E-05  1.55059076E-05 -1.59612574E-04  0.00000000E+00  0.00000000E+00
 -5.37697023E-04 -2.73753178E-05  9.76829381E-01 -9.16318190E-03  4.34511386E-02
  1.72769352E-04 -1.16240947E-03 -1.56020685E-03  1.44009246E-03  0.00000000E+00
  1.57303868E-03 -1.28240726E-03  0.00000000E+00 -5.64564873E-04 -8.57764575E-04
  0.00000000E+00  5.74721777E-05 -3.91264341E-05  0.00000000E+00  2.91642920E-05
  0.00000000E+00  0.00000000E+00 -1.17652786E-04 -2.74420023E-06  7.56601580E-04
  0.00000000E+00  0.00000000E+00 -2.00931726E-04 -2.34997004E-04 -2.67011622E-04
  0.00000000E+00  0.00000000E+00  1.65193570E-04  1.27140218E-04  0.00000000E+00
 -6.40927199E-05  1.19424283E-06  0.00000000E+00  0.00000000E+00  1.86683437E-05
  1.01178134E-05  0.00000000E+00 -1.24642129E-06  1.22663809E-04  0.00000000E+00
  0.00000000E+00  2.56522395E-04  9.20291572E-05 -4.62185761E-03 -2.09911812E-04